
     Program PWSCF v.7.2 starts on 30Nov2023 at 16:51:14 

     This program is part of the open-source Quantum ESPRESSO suite
     for quantum simulation of materials; please cite
         "P. Giannozzi et al., J. Phys.:Condens. Matter 21 395502 (2009);
         "P. Giannozzi et al., J. Phys.:Condens. Matter 29 465901 (2017);
         "P. Giannozzi et al., J. Chem. Phys. 152 154105 (2020);
          URL http://www.quantum-espresso.org", 
     in publications or presentations arising from this work. More details at
     http://www.quantum-espresso.org/quote

     Parallel version (MPI & OpenMP), running on      16 processor cores
     Number of MPI processes:                16
     Threads/MPI process:                     1

     MPI processes distributed on     1 nodes
     510517 MiB available memory on the printing compute node when the environment starts

     Reading input from espresso.pwi

     Current dimensions of program PWSCF are:
     Max number of different atomic species (ntypx) = 10
     Max number of k-points (npk) =  40000
     Max angular momentum in pseudopotentials (lmaxx) =  4
     file O.pbe-n-kjpaw_psl.0.1.UPF: wavefunction(s)  2P renormalized
     Message from routine find_sym:
     Not a group! Trying with lower acceptance parameter...
     Message from routine find_sym:
     Symmetry operations form a group

     R & G space division:  proc/nbgrp/npool/nimage =      16
     Subspace diagonalization in iterative solution of the eigenvalue problem:
     a serial algorithm will be used


     Parallelization info
     --------------------
     sticks:   dense  smooth     PW     G-vecs:    dense   smooth      PW
     Min         592     243     69                22300     5929     901
     Max         594     244     71                22301     5932     902
     Sum        9479    3903   1119               356803    94895   14421

     Using Slab Decomposition



     bravais-lattice index     =            0
     lattice parameter (alat)  =      14.1684  a.u.
     unit-cell volume          =    1512.3338 (a.u.)^3
     number of atoms/cell      =           16
     number of atomic types    =            2
     number of electrons       =       128.00
     number of Kohn-Sham states=           85
     kinetic-energy cutoff     =      60.0000  Ry
     charge density cutoff     =     580.0000  Ry
     scf convergence threshold =      1.0E-07
     mixing beta               =       0.3000
     number of iterations used =            8  plain     mixing
     Exchange-correlation= SLA  PW   PBX  PBC
                           (   1   4   3   4   0   0   0)
     Hubbard projectors: ortho-atomic
     Hubbard parameters of DFT+U (Dudarev formulation) in eV:
     U(W-5d) =  7.0000
     U(O-2p) =  8.0000

     Internal variables: lda_plus_u =T, lda_plus_u_kind = 0

     celldm(1)=  14.168413  celldm(2)=   0.000000  celldm(3)=   0.000000
     celldm(4)=   0.000000  celldm(5)=   0.000000  celldm(6)=   0.000000

     crystal axes: (cart. coord. in units of alat)
               a(1) = (   1.000000   0.000000   0.000000 )  
               a(2) = (   0.000000   1.022385   0.000000 )  
               a(3) = (   0.000000   0.000000   0.520079 )  

     reciprocal axes: (cart. coord. in units 2 pi/alat)
               b(1) = (  1.000000  0.000000  0.000000 )  
               b(2) = (  0.000000  0.978105  0.000000 )  
               b(3) = (  0.000000  0.000000  1.922784 )  


     PseudoPot. # 1 for W  read from file:
     /home/caique.campos/work/SSSP-EFF/W_pbe_v1.2.uspp.F.UPF
     MD5 check sum: 9c083fa34c2a2ea0f02f1f893e16e1c8
     Pseudo is Ultrasoft + core correction, Zval = 14.0
     Generated by new atomic code, or converted to UPF format
     Using radial grid of  923 points,  8 beta functions with: 
                l(1) =   0
                l(2) =   0
                l(3) =   0
                l(4) =   1
                l(5) =   1
                l(6) =   2
                l(7) =   2
                l(8) =   3
     Q(r) pseudized with  6 coefficients,  rinner =    1.350   1.350   1.350
                                                       1.350   1.350   1.350
                                                       1.350

     PseudoPot. # 2 for O  read from file:
     /home/caique.campos/work/SSSP-EFF/O.pbe-n-kjpaw_psl.0.1.UPF
     MD5 check sum: 0234752ac141de4415c5fc33072bef88
     Pseudo is Projector augmented-wave + core cor, Zval =  6.0
     Generated using "atomic" code by A. Dal Corso  v.5.0.99 svn rev. 10869
     Shape of augmentation charge: BESSEL
     Using radial grid of 1095 points,  4 beta functions with: 
                l(1) =   0
                l(2) =   0
                l(3) =   1
                l(4) =   1
     Q(r) pseudized with 0 coefficients 


     atomic species   valence    mass     pseudopotential
        W             14.00   183.84000     W ( 1.00)
        O              6.00    15.99900     O ( 1.00)

     Starting magnetic structure 
     atomic species   magnetization
        W            0.000
        O            0.000

     No symmetry found



   Cartesian axes

     site n.     atom                  positions (alat units)
         1           W   tau(   1) = (   0.2499973   1.0021174   0.4953088  )
         2           W   tau(   2) = (   0.2499973   0.4909228   0.0247724  )
         3           W   tau(   3) = (   0.7499991   0.5314663   0.4953088  )
         4           W   tau(   4) = (   0.7499991   0.0202717   0.0247724  )
         5           O   tau(   5) = (   0.7499991   0.7676378   0.5171547  )
         6           O   tau(   6) = (   0.7499991   1.0105241   0.2605816  )
         7           O   tau(   7) = (   0.4999982   0.0000000   0.0000000  )
         8           O   tau(   8) = (   0.7499991   0.2564432   0.0029264  )
         9           O   tau(   9) = (   0.2499973   0.5230557   0.2605816  )
        10           O   tau(  10) = (   0.0000000   0.0000000   0.0000000  )
        11           O   tau(  11) = (   0.2499973   0.2547513   0.0029264  )
        12           O   tau(  12) = (   0.2499973   0.0118650   0.2594995  )
        13           O   tau(  13) = (   0.2499973   0.7659459   0.5171547  )
        14           O   tau(  14) = (   0.4999982   0.5111946   0.0000000  )
        15           O   tau(  15) = (   0.7499991   0.4993334   0.2594995  )
        16           O   tau(  16) = (   0.0000000   0.5111946   0.0000000  )

     number of k points=    36  Gaussian smearing, width (Ry)=  0.0010
                       cart. coord. in units 2pi/alat
        k(    1) = (   0.0000000   0.0000000   0.0000000), wk =   0.0156250
        k(    2) = (   0.0000000   0.0000000   0.4806960), wk =   0.0312500
        k(    3) = (   0.0000000   0.0000000  -0.9613920), wk =   0.0156250
        k(    4) = (   0.0000000   0.2445262   0.0000000), wk =   0.0312500
        k(    5) = (   0.0000000   0.2445262   0.4806960), wk =   0.0312500
        k(    6) = (   0.0000000   0.2445262  -0.9613920), wk =   0.0312500
        k(    7) = (   0.0000000  -0.4890524   0.0000000), wk =   0.0156250
        k(    8) = (   0.0000000  -0.4890524   0.4806960), wk =   0.0312500
        k(    9) = (   0.0000000  -0.4890524  -0.9613920), wk =   0.0156250
        k(   10) = (   0.2500000   0.0000000   0.0000000), wk =   0.0312500
        k(   11) = (   0.2500000   0.0000000   0.4806960), wk =   0.0312500
        k(   12) = (   0.2500000   0.0000000  -0.9613920), wk =   0.0312500
        k(   13) = (   0.2500000   0.2445262   0.0000000), wk =   0.0312500
        k(   14) = (   0.2500000   0.2445262   0.4806960), wk =   0.0312500
        k(   15) = (   0.2500000   0.2445262  -0.9613920), wk =   0.0312500
        k(   16) = (   0.2500000  -0.4890524   0.0000000), wk =   0.0312500
        k(   17) = (   0.2500000  -0.4890524   0.4806960), wk =   0.0312500
        k(   18) = (   0.2500000  -0.4890524  -0.9613920), wk =   0.0312500
        k(   19) = (  -0.5000000   0.0000000   0.0000000), wk =   0.0156250
        k(   20) = (  -0.5000000   0.0000000   0.4806960), wk =   0.0312500
        k(   21) = (  -0.5000000   0.0000000  -0.9613920), wk =   0.0156250
        k(   22) = (  -0.5000000   0.2445262   0.0000000), wk =   0.0312500
        k(   23) = (  -0.5000000   0.2445262   0.4806960), wk =   0.0312500
        k(   24) = (  -0.5000000   0.2445262  -0.9613920), wk =   0.0312500
        k(   25) = (  -0.5000000  -0.4890524   0.0000000), wk =   0.0156250
        k(   26) = (  -0.5000000  -0.4890524   0.4806960), wk =   0.0312500
        k(   27) = (  -0.5000000  -0.4890524  -0.9613920), wk =   0.0156250
        k(   28) = (   0.0000000   0.2445262  -0.4806960), wk =   0.0312500
        k(   29) = (   0.2500000   0.0000000  -0.4806960), wk =   0.0312500
        k(   30) = (   0.2500000  -0.2445262   0.0000000), wk =   0.0312500
        k(   31) = (   0.2500000  -0.2445262  -0.4806960), wk =   0.0312500
        k(   32) = (   0.2500000   0.2445262  -0.4806960), wk =   0.0312500
        k(   33) = (  -0.2500000   0.2445262  -0.4806960), wk =   0.0312500
        k(   34) = (   0.2500000  -0.2445262   0.9613920), wk =   0.0312500
        k(   35) = (   0.2500000   0.4890524  -0.4806960), wk =   0.0312500
        k(   36) = (  -0.5000000   0.2445262  -0.4806960), wk =   0.0312500

     Dense  grid:   356803 G-vectors     FFT dimensions: ( 120, 120,  60)

     Smooth grid:    94895 G-vectors     FFT dimensions: (  72,  72,  40)

     Estimated max dynamical RAM per process >     283.76 MB

     Estimated total dynamical RAM >       4.43 GB
     Generating pointlists ...
     new r_m :   0.0978 (alat units)  1.3862 (a.u.) for type    1
     new r_m :   0.0978 (alat units)  1.3862 (a.u.) for type    2

     Initial potential from superposition of free atoms

     starting charge     127.5986, renormalised to     128.0000

     negative rho (up, down):  1.262E-01 1.262E-01

     STARTING HUBBARD OCCUPATIONS:

     =================== HUBBARD OCCUPATIONS ===================
     ------------------------ ATOM    1 ------------------------
     Tr[ns(  1)] (up, down, total) =   1.95000  1.95000  3.90000
     Atomic magnetic moment for atom   1 =   0.00000
     SPIN  1
     eigenvalues:
       0.390  0.390  0.390  0.390  0.390
     eigenvectors (columns):
       1.000  0.000  0.000  0.000  0.000
       0.000  1.000  0.000  0.000  0.000
       0.000  0.000  1.000  0.000  0.000
       0.000  0.000  0.000  1.000  0.000
       0.000  0.000  0.000  0.000  1.000
     occupation matrix ns (before diag.):
       0.390  0.000  0.000  0.000  0.000
       0.000  0.390  0.000  0.000  0.000
       0.000  0.000  0.390  0.000  0.000
       0.000  0.000  0.000  0.390  0.000
       0.000  0.000  0.000  0.000  0.390
     SPIN  2
     eigenvalues:
       0.390  0.390  0.390  0.390  0.390
     eigenvectors (columns):
       1.000  0.000  0.000  0.000  0.000
       0.000  1.000  0.000  0.000  0.000
       0.000  0.000  1.000  0.000  0.000
       0.000  0.000  0.000  1.000  0.000
       0.000  0.000  0.000  0.000  1.000
     occupation matrix ns (before diag.):
       0.390  0.000  0.000  0.000  0.000
       0.000  0.390  0.000  0.000  0.000
       0.000  0.000  0.390  0.000  0.000
       0.000  0.000  0.000  0.390  0.000
       0.000  0.000  0.000  0.000  0.390
     ------------------------ ATOM    2 ------------------------
     Tr[ns(  2)] (up, down, total) =   1.95000  1.95000  3.90000
     Atomic magnetic moment for atom   2 =   0.00000
     SPIN  1
     eigenvalues:
       0.390  0.390  0.390  0.390  0.390
     eigenvectors (columns):
       1.000  0.000  0.000  0.000  0.000
       0.000  1.000  0.000  0.000  0.000
       0.000  0.000  1.000  0.000  0.000
       0.000  0.000  0.000  1.000  0.000
       0.000  0.000  0.000  0.000  1.000
     occupation matrix ns (before diag.):
       0.390  0.000  0.000  0.000  0.000
       0.000  0.390  0.000  0.000  0.000
       0.000  0.000  0.390  0.000  0.000
       0.000  0.000  0.000  0.390  0.000
       0.000  0.000  0.000  0.000  0.390
     SPIN  2
     eigenvalues:
       0.390  0.390  0.390  0.390  0.390
     eigenvectors (columns):
       1.000  0.000  0.000  0.000  0.000
       0.000  1.000  0.000  0.000  0.000
       0.000  0.000  1.000  0.000  0.000
       0.000  0.000  0.000  1.000  0.000
       0.000  0.000  0.000  0.000  1.000
     occupation matrix ns (before diag.):
       0.390  0.000  0.000  0.000  0.000
       0.000  0.390  0.000  0.000  0.000
       0.000  0.000  0.390  0.000  0.000
       0.000  0.000  0.000  0.390  0.000
       0.000  0.000  0.000  0.000  0.390
     ------------------------ ATOM    3 ------------------------
     Tr[ns(  3)] (up, down, total) =   1.95000  1.95000  3.90000
     Atomic magnetic moment for atom   3 =   0.00000
     SPIN  1
     eigenvalues:
       0.390  0.390  0.390  0.390  0.390
     eigenvectors (columns):
       1.000  0.000  0.000  0.000  0.000
       0.000  1.000  0.000  0.000  0.000
       0.000  0.000  1.000  0.000  0.000
       0.000  0.000  0.000  1.000  0.000
       0.000  0.000  0.000  0.000  1.000
     occupation matrix ns (before diag.):
       0.390  0.000  0.000  0.000  0.000
       0.000  0.390  0.000  0.000  0.000
       0.000  0.000  0.390  0.000  0.000
       0.000  0.000  0.000  0.390  0.000
       0.000  0.000  0.000  0.000  0.390
     SPIN  2
     eigenvalues:
       0.390  0.390  0.390  0.390  0.390
     eigenvectors (columns):
       1.000  0.000  0.000  0.000  0.000
       0.000  1.000  0.000  0.000  0.000
       0.000  0.000  1.000  0.000  0.000
       0.000  0.000  0.000  1.000  0.000
       0.000  0.000  0.000  0.000  1.000
     occupation matrix ns (before diag.):
       0.390  0.000  0.000  0.000  0.000
       0.000  0.390  0.000  0.000  0.000
       0.000  0.000  0.390  0.000  0.000
       0.000  0.000  0.000  0.390  0.000
       0.000  0.000  0.000  0.000  0.390
     ------------------------ ATOM    4 ------------------------
     Tr[ns(  4)] (up, down, total) =   1.95000  1.95000  3.90000
     Atomic magnetic moment for atom   4 =   0.00000
     SPIN  1
     eigenvalues:
       0.390  0.390  0.390  0.390  0.390
     eigenvectors (columns):
       1.000  0.000  0.000  0.000  0.000
       0.000  1.000  0.000  0.000  0.000
       0.000  0.000  1.000  0.000  0.000
       0.000  0.000  0.000  1.000  0.000
       0.000  0.000  0.000  0.000  1.000
     occupation matrix ns (before diag.):
       0.390  0.000  0.000  0.000  0.000
       0.000  0.390  0.000  0.000  0.000
       0.000  0.000  0.390  0.000  0.000
       0.000  0.000  0.000  0.390  0.000
       0.000  0.000  0.000  0.000  0.390
     SPIN  2
     eigenvalues:
       0.390  0.390  0.390  0.390  0.390
     eigenvectors (columns):
       1.000  0.000  0.000  0.000  0.000
       0.000  1.000  0.000  0.000  0.000
       0.000  0.000  1.000  0.000  0.000
       0.000  0.000  0.000  1.000  0.000
       0.000  0.000  0.000  0.000  1.000
     occupation matrix ns (before diag.):
       0.390  0.000  0.000  0.000  0.000
       0.000  0.390  0.000  0.000  0.000
       0.000  0.000  0.390  0.000  0.000
       0.000  0.000  0.000  0.390  0.000
       0.000  0.000  0.000  0.000  0.390
     ------------------------ ATOM    5 ------------------------
     Tr[ns(  5)] (up, down, total) =   2.00000  2.00000  4.00000
     Atomic magnetic moment for atom   5 =   0.00000
     SPIN  1
     eigenvalues:
       0.667  0.667  0.667
     eigenvectors (columns):
       1.000  0.000  0.000
       0.000  1.000  0.000
       0.000  0.000  1.000
     occupation matrix ns (before diag.):
       0.667  0.000  0.000
       0.000  0.667  0.000
       0.000  0.000  0.667
     SPIN  2
     eigenvalues:
       0.667  0.667  0.667
     eigenvectors (columns):
       1.000  0.000  0.000
       0.000  1.000  0.000
       0.000  0.000  1.000
     occupation matrix ns (before diag.):
       0.667  0.000  0.000
       0.000  0.667  0.000
       0.000  0.000  0.667
     ------------------------ ATOM    6 ------------------------
     Tr[ns(  6)] (up, down, total) =   2.00000  2.00000  4.00000
     Atomic magnetic moment for atom   6 =   0.00000
     SPIN  1
     eigenvalues:
       0.667  0.667  0.667
     eigenvectors (columns):
       1.000  0.000  0.000
       0.000  1.000  0.000
       0.000  0.000  1.000
     occupation matrix ns (before diag.):
       0.667  0.000  0.000
       0.000  0.667  0.000
       0.000  0.000  0.667
     SPIN  2
     eigenvalues:
       0.667  0.667  0.667
     eigenvectors (columns):
       1.000  0.000  0.000
       0.000  1.000  0.000
       0.000  0.000  1.000
     occupation matrix ns (before diag.):
       0.667  0.000  0.000
       0.000  0.667  0.000
       0.000  0.000  0.667
     ------------------------ ATOM    7 ------------------------
     Tr[ns(  7)] (up, down, total) =   2.00000  2.00000  4.00000
     Atomic magnetic moment for atom   7 =   0.00000
     SPIN  1
     eigenvalues:
       0.667  0.667  0.667
     eigenvectors (columns):
       1.000  0.000  0.000
       0.000  1.000  0.000
       0.000  0.000  1.000
     occupation matrix ns (before diag.):
       0.667  0.000  0.000
       0.000  0.667  0.000
       0.000  0.000  0.667
     SPIN  2
     eigenvalues:
       0.667  0.667  0.667
     eigenvectors (columns):
       1.000  0.000  0.000
       0.000  1.000  0.000
       0.000  0.000  1.000
     occupation matrix ns (before diag.):
       0.667  0.000  0.000
       0.000  0.667  0.000
       0.000  0.000  0.667
     ------------------------ ATOM    8 ------------------------
     Tr[ns(  8)] (up, down, total) =   2.00000  2.00000  4.00000
     Atomic magnetic moment for atom   8 =   0.00000
     SPIN  1
     eigenvalues:
       0.667  0.667  0.667
     eigenvectors (columns):
       1.000  0.000  0.000
       0.000  1.000  0.000
       0.000  0.000  1.000
     occupation matrix ns (before diag.):
       0.667  0.000  0.000
       0.000  0.667  0.000
       0.000  0.000  0.667
     SPIN  2
     eigenvalues:
       0.667  0.667  0.667
     eigenvectors (columns):
       1.000  0.000  0.000
       0.000  1.000  0.000
       0.000  0.000  1.000
     occupation matrix ns (before diag.):
       0.667  0.000  0.000
       0.000  0.667  0.000
       0.000  0.000  0.667
     ------------------------ ATOM    9 ------------------------
     Tr[ns(  9)] (up, down, total) =   2.00000  2.00000  4.00000
     Atomic magnetic moment for atom   9 =   0.00000
     SPIN  1
     eigenvalues:
       0.667  0.667  0.667
     eigenvectors (columns):
       1.000  0.000  0.000
       0.000  1.000  0.000
       0.000  0.000  1.000
     occupation matrix ns (before diag.):
       0.667  0.000  0.000
       0.000  0.667  0.000
       0.000  0.000  0.667
     SPIN  2
     eigenvalues:
       0.667  0.667  0.667
     eigenvectors (columns):
       1.000  0.000  0.000
       0.000  1.000  0.000
       0.000  0.000  1.000
     occupation matrix ns (before diag.):
       0.667  0.000  0.000
       0.000  0.667  0.000
       0.000  0.000  0.667
     ------------------------ ATOM   10 ------------------------
     Tr[ns( 10)] (up, down, total) =   2.00000  2.00000  4.00000
     Atomic magnetic moment for atom  10 =   0.00000
     SPIN  1
     eigenvalues:
       0.667  0.667  0.667
     eigenvectors (columns):
       1.000  0.000  0.000
       0.000  1.000  0.000
       0.000  0.000  1.000
     occupation matrix ns (before diag.):
       0.667  0.000  0.000
       0.000  0.667  0.000
       0.000  0.000  0.667
     SPIN  2
     eigenvalues:
       0.667  0.667  0.667
     eigenvectors (columns):
       1.000  0.000  0.000
       0.000  1.000  0.000
       0.000  0.000  1.000
     occupation matrix ns (before diag.):
       0.667  0.000  0.000
       0.000  0.667  0.000
       0.000  0.000  0.667
     ------------------------ ATOM   11 ------------------------
     Tr[ns( 11)] (up, down, total) =   2.00000  2.00000  4.00000
     Atomic magnetic moment for atom  11 =   0.00000
     SPIN  1
     eigenvalues:
       0.667  0.667  0.667
     eigenvectors (columns):
       1.000  0.000  0.000
       0.000  1.000  0.000
       0.000  0.000  1.000
     occupation matrix ns (before diag.):
       0.667  0.000  0.000
       0.000  0.667  0.000
       0.000  0.000  0.667
     SPIN  2
     eigenvalues:
       0.667  0.667  0.667
     eigenvectors (columns):
       1.000  0.000  0.000
       0.000  1.000  0.000
       0.000  0.000  1.000
     occupation matrix ns (before diag.):
       0.667  0.000  0.000
       0.000  0.667  0.000
       0.000  0.000  0.667
     ------------------------ ATOM   12 ------------------------
     Tr[ns( 12)] (up, down, total) =   2.00000  2.00000  4.00000
     Atomic magnetic moment for atom  12 =   0.00000
     SPIN  1
     eigenvalues:
       0.667  0.667  0.667
     eigenvectors (columns):
       1.000  0.000  0.000
       0.000  1.000  0.000
       0.000  0.000  1.000
     occupation matrix ns (before diag.):
       0.667  0.000  0.000
       0.000  0.667  0.000
       0.000  0.000  0.667
     SPIN  2
     eigenvalues:
       0.667  0.667  0.667
     eigenvectors (columns):
       1.000  0.000  0.000
       0.000  1.000  0.000
       0.000  0.000  1.000
     occupation matrix ns (before diag.):
       0.667  0.000  0.000
       0.000  0.667  0.000
       0.000  0.000  0.667
     ------------------------ ATOM   13 ------------------------
     Tr[ns( 13)] (up, down, total) =   2.00000  2.00000  4.00000
     Atomic magnetic moment for atom  13 =   0.00000
     SPIN  1
     eigenvalues:
       0.667  0.667  0.667
     eigenvectors (columns):
       1.000  0.000  0.000
       0.000  1.000  0.000
       0.000  0.000  1.000
     occupation matrix ns (before diag.):
       0.667  0.000  0.000
       0.000  0.667  0.000
       0.000  0.000  0.667
     SPIN  2
     eigenvalues:
       0.667  0.667  0.667
     eigenvectors (columns):
       1.000  0.000  0.000
       0.000  1.000  0.000
       0.000  0.000  1.000
     occupation matrix ns (before diag.):
       0.667  0.000  0.000
       0.000  0.667  0.000
       0.000  0.000  0.667
     ------------------------ ATOM   14 ------------------------
     Tr[ns( 14)] (up, down, total) =   2.00000  2.00000  4.00000
     Atomic magnetic moment for atom  14 =   0.00000
     SPIN  1
     eigenvalues:
       0.667  0.667  0.667
     eigenvectors (columns):
       1.000  0.000  0.000
       0.000  1.000  0.000
       0.000  0.000  1.000
     occupation matrix ns (before diag.):
       0.667  0.000  0.000
       0.000  0.667  0.000
       0.000  0.000  0.667
     SPIN  2
     eigenvalues:
       0.667  0.667  0.667
     eigenvectors (columns):
       1.000  0.000  0.000
       0.000  1.000  0.000
       0.000  0.000  1.000
     occupation matrix ns (before diag.):
       0.667  0.000  0.000
       0.000  0.667  0.000
       0.000  0.000  0.667
     ------------------------ ATOM   15 ------------------------
     Tr[ns( 15)] (up, down, total) =   2.00000  2.00000  4.00000
     Atomic magnetic moment for atom  15 =   0.00000
     SPIN  1
     eigenvalues:
       0.667  0.667  0.667
     eigenvectors (columns):
       1.000  0.000  0.000
       0.000  1.000  0.000
       0.000  0.000  1.000
     occupation matrix ns (before diag.):
       0.667  0.000  0.000
       0.000  0.667  0.000
       0.000  0.000  0.667
     SPIN  2
     eigenvalues:
       0.667  0.667  0.667
     eigenvectors (columns):
       1.000  0.000  0.000
       0.000  1.000  0.000
       0.000  0.000  1.000
     occupation matrix ns (before diag.):
       0.667  0.000  0.000
       0.000  0.667  0.000
       0.000  0.000  0.667
     ------------------------ ATOM   16 ------------------------
     Tr[ns( 16)] (up, down, total) =   2.00000  2.00000  4.00000
     Atomic magnetic moment for atom  16 =   0.00000
     SPIN  1
     eigenvalues:
       0.667  0.667  0.667
     eigenvectors (columns):
       1.000  0.000  0.000
       0.000  1.000  0.000
       0.000  0.000  1.000
     occupation matrix ns (before diag.):
       0.667  0.000  0.000
       0.000  0.667  0.000
       0.000  0.000  0.667
     SPIN  2
     eigenvalues:
       0.667  0.667  0.667
     eigenvectors (columns):
       1.000  0.000  0.000
       0.000  1.000  0.000
       0.000  0.000  1.000
     occupation matrix ns (before diag.):
       0.667  0.000  0.000
       0.000  0.667  0.000
       0.000  0.000  0.667

     Number of occupied Hubbard levels =   63.6000

     Atomic wfc used for Hubbard projectors are orthogonalized

     Starting wfcs are  100 randomized atomic wfcs
     Checking if some PAW data can be deallocated... 

     total cpu time spent up to now is        9.7 secs

     per-process dynamical memory:   162.9 Mb

     Self-consistent Calculation

     iteration #  1     ecut=    60.00 Ry     beta= 0.30
     Davidson diagonalization with overlap
     ethr =  1.00E-02,  avg # of iterations =  2.7

     =================== HUBBARD OCCUPATIONS ===================
     ------------------------ ATOM    1 ------------------------
     Tr[ns(  1)] (up, down, total) =   0.92275  0.92271  1.84546
     Atomic magnetic moment for atom   1 =   0.00003
     SPIN  1
     eigenvalues:
       0.133  0.142  0.145  0.249  0.255
     eigenvectors (columns):
      -0.001 -0.002  0.074 -0.997  0.005
       0.733  0.680  0.017 -0.001  0.000
       0.005  0.020 -0.995 -0.074  0.071
       0.000  0.001 -0.070 -0.011 -0.997
      -0.681  0.733  0.011 -0.000  0.000
     occupation matrix ns (before diag.):
       0.248  0.000  0.008  0.001  0.000
       0.000  0.137 -0.000 -0.000  0.005
       0.008 -0.000  0.146 -0.008 -0.000
       0.001 -0.000 -0.008  0.254 -0.000
       0.000  0.005 -0.000 -0.000  0.137
     SPIN  2
     eigenvalues:
       0.133  0.142  0.145  0.249  0.255
     eigenvectors (columns):
       0.000  0.001 -0.074  0.997 -0.013
       0.734  0.680  0.007 -0.000 -0.000
      -0.005 -0.005  0.995  0.075  0.070
      -0.001 -0.000  0.071 -0.008 -0.997
      -0.680  0.734  0.000 -0.000  0.000
     occupation matrix ns (before diag.):
       0.248 -0.000  0.008  0.001 -0.000
      -0.000  0.137  0.000  0.000  0.005
       0.008  0.000  0.146 -0.008 -0.000
       0.001  0.000 -0.008  0.254 -0.000
      -0.000  0.005 -0.000 -0.000  0.137
     ------------------------ ATOM    2 ------------------------
     Tr[ns(  2)] (up, down, total) =   0.92488  0.92479  1.84967
     Atomic magnetic moment for atom   2 =   0.00009
     SPIN  1
     eigenvalues:
       0.133  0.142  0.146  0.249  0.255
     eigenvectors (columns):
      -0.000 -0.002  0.074 -0.997 -0.002
       0.696 -0.717 -0.020 -0.001 -0.001
       0.003 -0.024  0.994  0.074 -0.071
      -0.000  0.003 -0.071 -0.003 -0.997
       0.718  0.696  0.015 -0.000  0.001
     occupation matrix ns (before diag.):
       0.249  0.000 -0.008  0.001  0.000
       0.000  0.138 -0.000  0.000 -0.005
      -0.008 -0.000  0.147  0.008  0.000
       0.001  0.000  0.008  0.254 -0.000
       0.000 -0.005  0.000 -0.000  0.137
     SPIN  2
     eigenvalues:
       0.133  0.142  0.146  0.249  0.255
     eigenvectors (columns):
       0.001  0.001 -0.074 -0.997  0.005
       0.698 -0.716 -0.019  0.001 -0.000
      -0.000  0.027 -0.994  0.074  0.071
       0.001 -0.002  0.071 -0.001  0.997
       0.716  0.698  0.019 -0.000 -0.000
     occupation matrix ns (before diag.):
       0.249 -0.000 -0.008  0.001  0.000
      -0.000  0.138  0.000 -0.000 -0.005
      -0.008  0.000  0.147  0.008 -0.000
       0.001 -0.000  0.008  0.254 -0.000
       0.000 -0.005 -0.000 -0.000  0.137
     ------------------------ ATOM    3 ------------------------
     Tr[ns(  3)] (up, down, total) =   0.92321  0.92354  1.84675
     Atomic magnetic moment for atom   3 =  -0.00032
     SPIN  1
     eigenvalues:
       0.133  0.142  0.145  0.249  0.254
     eigenvectors (columns):
       0.000  0.002 -0.074  0.997 -0.012
       0.702  0.712  0.010 -0.001  0.000
      -0.001  0.014 -0.995 -0.073  0.071
      -0.000 -0.001  0.070  0.017  0.997
       0.712 -0.702 -0.011  0.000  0.000
     occupation matrix ns (before diag.):
       0.249 -0.000 -0.008  0.000  0.000
      -0.000  0.137 -0.000  0.000 -0.005
      -0.008 -0.000  0.146  0.008  0.000
       0.000  0.000  0.008  0.254  0.000
       0.000 -0.005  0.000  0.000  0.137
     SPIN  2
     eigenvalues:
       0.133  0.142  0.146  0.249  0.255
     eigenvectors (columns):
      -0.000 -0.002 -0.072 -0.997  0.029
       0.707  0.707 -0.009 -0.001  0.001
       0.005 -0.016 -0.995  0.070 -0.074
       0.000  0.002  0.072 -0.034 -0.997
       0.707 -0.707  0.015 -0.000 -0.000
     occupation matrix ns (before diag.):
       0.249  0.000 -0.007  0.000  0.000
       0.000  0.137 -0.000 -0.000 -0.005
      -0.007 -0.000  0.147  0.008 -0.000
       0.000 -0.000  0.008  0.254  0.000
       0.000 -0.005 -0.000  0.000  0.137
     ------------------------ ATOM    4 ------------------------
     Tr[ns(  4)] (up, down, total) =   0.92326  0.92325  1.84650
     Atomic magnetic moment for atom   4 =   0.00001
     SPIN  1
     eigenvalues:
       0.133  0.142  0.145  0.249  0.255
     eigenvectors (columns):
      -0.000  0.001  0.073 -0.997  0.024
      -0.705  0.709 -0.019 -0.000  0.001
       0.004 -0.023 -0.995 -0.071  0.073
      -0.000 -0.001 -0.071 -0.029 -0.997
       0.709  0.705 -0.013 -0.000  0.000
     occupation matrix ns (before diag.):
       0.248  0.000  0.008  0.000  0.000
       0.000  0.137  0.000 -0.000  0.005
       0.008  0.000  0.146 -0.008  0.000
       0.000 -0.000 -0.008  0.254 -0.000
       0.000  0.005  0.000 -0.000  0.137
     SPIN  2
     eigenvalues:
       0.133  0.142  0.145  0.249  0.254
     eigenvectors (columns):
       0.000 -0.000 -0.074 -0.997  0.010
      -0.707 -0.707 -0.003  0.000 -0.000
      -0.003 -0.002  0.995 -0.074  0.071
      -0.000  0.000  0.070 -0.015 -0.997
       0.707 -0.707  0.001  0.000 -0.000
     occupation matrix ns (before diag.):
       0.248 -0.000  0.008  0.000 -0.000
      -0.000  0.137 -0.000  0.000  0.005
       0.008 -0.000  0.147 -0.008  0.000
       0.000  0.000 -0.008  0.254  0.000
      -0.000  0.005  0.000  0.000  0.137
     ------------------------ ATOM    5 ------------------------
     Tr[ns(  5)] (up, down, total) =   2.69324  2.69342  5.38666
     Atomic magnetic moment for atom   5 =  -0.00018
     SPIN  1
     eigenvalues:
       0.863  0.915  0.915
     eigenvectors (columns):
      -0.045 -0.283  0.958
       0.001 -0.959 -0.283
       0.999 -0.012  0.044
     occupation matrix ns (before diag.):
       0.915 -0.000  0.002
      -0.000  0.915 -0.000
       0.002 -0.000  0.863
     SPIN  2
     eigenvalues:
       0.863  0.915  0.916
     eigenvectors (columns):
      -0.039  0.265  0.963
       0.001 -0.964  0.266
       0.999  0.011  0.037
     occupation matrix ns (before diag.):
       0.916  0.000  0.002
       0.000  0.915 -0.000
       0.002 -0.000  0.863
     ------------------------ ATOM    6 ------------------------
     Tr[ns(  6)] (up, down, total) =   2.69481  2.69484  5.38966
     Atomic magnetic moment for atom   6 =  -0.00003
     SPIN  1
     eigenvalues:
       0.861  0.916  0.917
     eigenvectors (columns):
       1.000  0.001  0.000
      -0.001  0.995 -0.098
      -0.000  0.098  0.995
     occupation matrix ns (before diag.):
       0.861  0.000  0.000
       0.000  0.916 -0.000
       0.000 -0.000  0.917
     SPIN  2
     eigenvalues:
       0.861  0.916  0.917
     eigenvectors (columns):
      -1.000  0.001 -0.003
      -0.001 -0.999 -0.040
       0.003  0.040 -0.999
     occupation matrix ns (before diag.):
       0.861 -0.000  0.000
      -0.000  0.916  0.000
       0.000  0.000  0.917
     ------------------------ ATOM    7 ------------------------
     Tr[ns(  7)] (up, down, total) =   2.70337  2.70349  5.40687
     Atomic magnetic moment for atom   7 =  -0.00012
     SPIN  1
     eigenvalues:
       0.861  0.921  0.921
     eigenvectors (columns):
      -0.029  1.000 -0.002
       0.999  0.029 -0.025
       0.025  0.003  1.000
     occupation matrix ns (before diag.):
       0.921  0.002  0.000
       0.002  0.862 -0.001
       0.000 -0.001  0.921
     SPIN  2
     eigenvalues:
       0.862  0.921  0.921
     eigenvectors (columns):
      -0.030  0.994 -0.103
       0.999  0.028 -0.026
       0.023  0.104  0.994
     occupation matrix ns (before diag.):
       0.921  0.002 -0.000
       0.002  0.862 -0.001
      -0.000 -0.001  0.921
     ------------------------ ATOM    8 ------------------------
     Tr[ns(  8)] (up, down, total) =   2.69324  2.69318  5.38643
     Atomic magnetic moment for atom   8 =   0.00006
     SPIN  1
     eigenvalues:
       0.863  0.915  0.916
     eigenvectors (columns):
       0.040  0.022 -0.999
       0.000  1.000  0.022
       0.999 -0.001  0.040
     occupation matrix ns (before diag.):
       0.915 -0.000 -0.002
      -0.000  0.915 -0.000
      -0.002 -0.000  0.863
     SPIN  2
     eigenvalues:
       0.863  0.915  0.915
     eigenvectors (columns):
       0.043 -0.289  0.956
      -0.001 -0.957 -0.290
       0.999  0.011 -0.041
     occupation matrix ns (before diag.):
       0.915 -0.000 -0.002
      -0.000  0.915  0.000
      -0.002  0.000  0.863
     ------------------------ ATOM    9 ------------------------
     Tr[ns(  9)] (up, down, total) =   2.69337  2.69326  5.38662
     Atomic magnetic moment for atom   9 =   0.00011
     SPIN  1
     eigenvalues:
       0.861  0.916  0.917
     eigenvectors (columns):
      -1.000  0.005 -0.002
       0.004  0.998  0.070
      -0.003 -0.070  0.998
     occupation matrix ns (before diag.):
       0.861  0.000 -0.000
       0.000  0.916  0.000
      -0.000  0.000  0.917
     SPIN  2
     eigenvalues:
       0.861  0.916  0.917
     eigenvectors (columns):
       1.000 -0.005 -0.001
       0.005  0.998 -0.069
       0.002  0.069  0.998
     occupation matrix ns (before diag.):
       0.861 -0.000 -0.000
      -0.000  0.916 -0.000
      -0.000 -0.000  0.917
     ------------------------ ATOM   10 ------------------------
     Tr[ns( 10)] (up, down, total) =   2.70354  2.70365  5.40719
     Atomic magnetic moment for atom  10 =  -0.00010
     SPIN  1
     eigenvalues:
       0.862  0.921  0.921
     eigenvectors (columns):
      -0.032  0.995  0.095
      -0.999 -0.030 -0.028
       0.025  0.096 -0.995
     occupation matrix ns (before diag.):
       0.921 -0.002 -0.000
      -0.002  0.862  0.001
      -0.000  0.001  0.921
     SPIN  2
     eigenvalues:
       0.862  0.921  0.921
     eigenvectors (columns):
      -0.027  1.000  0.004
      -0.999 -0.027 -0.023
       0.023  0.005 -1.000
     occupation matrix ns (before diag.):
       0.921 -0.002  0.000
      -0.002  0.862  0.001
       0.000  0.001  0.921
     ------------------------ ATOM   11 ------------------------
     Tr[ns( 11)] (up, down, total) =   2.69272  2.69281  5.38554
     Atomic magnetic moment for atom  11 =  -0.00009
     SPIN  1
     eigenvalues:
       0.862  0.915  0.915
     eigenvectors (columns):
      -0.040  0.244 -0.969
      -0.001  0.970  0.244
       0.999  0.011 -0.039
     occupation matrix ns (before diag.):
       0.915 -0.000  0.002
      -0.000  0.915  0.000
       0.002  0.000  0.863
     SPIN  2
     eigenvalues:
       0.862  0.915  0.916
     eigenvectors (columns):
      -0.044 -0.098 -0.994
      -0.001  0.995 -0.098
       0.999 -0.004 -0.044
     occupation matrix ns (before diag.):
       0.915  0.000  0.002
       0.000  0.915  0.000
       0.002  0.000  0.862
     ------------------------ ATOM   12 ------------------------
     Tr[ns( 12)] (up, down, total) =   2.69684  2.69699  5.39383
     Atomic magnetic moment for atom  12 =  -0.00015
     SPIN  1
     eigenvalues:
       0.862  0.917  0.918
     eigenvectors (columns):
       1.000  0.001  0.003
      -0.001  0.993  0.119
      -0.002 -0.119  0.993
     occupation matrix ns (before diag.):
       0.862  0.000  0.000
       0.000  0.917  0.000
       0.000  0.000  0.918
     SPIN  2
     eigenvalues:
       0.862  0.917  0.918
     eigenvectors (columns):
       1.000  0.000  0.000
      -0.000  0.998 -0.063
      -0.000  0.063  0.998
     occupation matrix ns (before diag.):
       0.862  0.000  0.000
       0.000  0.917 -0.000
       0.000 -0.000  0.918
     ------------------------ ATOM   13 ------------------------
     Tr[ns( 13)] (up, down, total) =   2.69170  2.69160  5.38330
     Atomic magnetic moment for atom  13 =   0.00010
     SPIN  1
     eigenvalues:
       0.862  0.915  0.915
     eigenvectors (columns):
       0.044 -0.009 -0.999
       0.002  1.000 -0.009
       0.999 -0.001  0.044
     occupation matrix ns (before diag.):
       0.915  0.000 -0.002
       0.000  0.915 -0.000
      -0.002 -0.000  0.862
     SPIN  2
     eigenvalues:
       0.862  0.915  0.915
     eigenvectors (columns):
       0.040  0.268  0.963
      -0.002 -0.963  0.268
       0.999 -0.012 -0.038
     occupation matrix ns (before diag.):
       0.915  0.000 -0.002
       0.000  0.915  0.000
      -0.002  0.000  0.862
     ------------------------ ATOM   14 ------------------------
     Tr[ns( 14)] (up, down, total) =   2.70426  2.70442  5.40868
     Atomic magnetic moment for atom  14 =  -0.00016
     SPIN  1
     eigenvalues:
       0.862  0.921  0.921
     eigenvectors (columns):
       0.029  0.999 -0.037
       0.999 -0.030 -0.026
       0.027  0.036  0.999
     occupation matrix ns (before diag.):
       0.921 -0.002 -0.000
      -0.002  0.862 -0.002
      -0.000 -0.002  0.921
     SPIN  2
     eigenvalues:
       0.862  0.921  0.921
     eigenvectors (columns):
       0.032  0.979  0.203
       0.999 -0.027 -0.027
       0.021 -0.203  0.979
     occupation matrix ns (before diag.):
       0.921 -0.002  0.000
      -0.002  0.862 -0.001
       0.000 -0.001  0.921
     ------------------------ ATOM   15 ------------------------
     Tr[ns( 15)] (up, down, total) =   2.69472  2.69454  5.38926
     Atomic magnetic moment for atom  15 =   0.00019
     SPIN  1
     eigenvalues:
       0.861  0.916  0.918
     eigenvectors (columns):
      -1.000 -0.001 -0.003
      -0.001  1.000  0.026
      -0.002 -0.026  1.000
     occupation matrix ns (before diag.):
       0.861 -0.000 -0.000
      -0.000  0.916  0.000
      -0.000  0.000  0.918
     SPIN  2
     eigenvalues:
       0.861  0.916  0.917
     eigenvectors (columns):
       1.000 -0.001 -0.000
      -0.001 -1.000 -0.002
       0.000 -0.002  1.000
     occupation matrix ns (before diag.):
       0.861  0.000 -0.000
       0.000  0.916 -0.000
      -0.000 -0.000  0.917
     ------------------------ ATOM   16 ------------------------
     Tr[ns( 16)] (up, down, total) =   2.70256  2.70220  5.40475
     Atomic magnetic moment for atom  16 =   0.00036
     SPIN  1
     eigenvalues:
       0.861  0.920  0.921
     eigenvectors (columns):
       0.032  0.998 -0.062
      -0.999  0.030 -0.027
       0.025 -0.062 -0.998
     occupation matrix ns (before diag.):
       0.920  0.002 -0.000
       0.002  0.861  0.001
      -0.000  0.001  0.921
     SPIN  2
     eigenvalues:
       0.861  0.920  0.921
     eigenvectors (columns):
       0.028  0.999 -0.037
      -0.999  0.027 -0.023
       0.022 -0.038 -0.999
     occupation matrix ns (before diag.):
       0.920  0.002 -0.000
       0.002  0.861  0.001
      -0.000  0.001  0.921

     Number of occupied Hubbard levels =   72.1172

     negative rho (up, down):  1.256E-01 1.256E-01

     total cpu time spent up to now is       26.9 secs

     total energy              =   -1131.17779707 Ry
     estimated scf accuracy    <       9.59347576 Ry

     total magnetization       =    -0.00 Bohr mag/cell
     absolute magnetization    =     0.02 Bohr mag/cell

     iteration #  2     ecut=    60.00 Ry     beta= 0.30
     Davidson diagonalization with overlap
     ethr =  7.49E-03,  avg # of iterations =  1.8

     negative rho (up, down):  1.269E-01 1.269E-01

     total cpu time spent up to now is       42.1 secs

     total energy              =   -1130.91508107 Ry
     estimated scf accuracy    <       1.68694211 Ry

     total magnetization       =    -0.00 Bohr mag/cell
     absolute magnetization    =     0.02 Bohr mag/cell

     iteration #  3     ecut=    60.00 Ry     beta= 0.30
     Davidson diagonalization with overlap
     ethr =  1.32E-03,  avg # of iterations =  5.0

     negative rho (up, down):  1.280E-01 1.280E-01

     total cpu time spent up to now is       64.1 secs

     total energy              =   -1131.48833549 Ry
     estimated scf accuracy    <       1.14709900 Ry

     total magnetization       =    -0.00 Bohr mag/cell
     absolute magnetization    =     0.01 Bohr mag/cell

     iteration #  4     ecut=    60.00 Ry     beta= 0.30
     Davidson diagonalization with overlap
     ethr =  8.96E-04,  avg # of iterations =  1.8

     negative rho (up, down):  1.291E-01 1.292E-01

     total cpu time spent up to now is       79.1 secs

     total energy              =   -1131.71570733 Ry
     estimated scf accuracy    <       0.13651380 Ry

     total magnetization       =    -0.00 Bohr mag/cell
     absolute magnetization    =     0.01 Bohr mag/cell

     iteration #  5     ecut=    60.00 Ry     beta= 0.30
     Davidson diagonalization with overlap
     ethr =  1.07E-04,  avg # of iterations =  3.8

     negative rho (up, down):  1.294E-01 1.294E-01

     total cpu time spent up to now is       96.6 secs

     total energy              =   -1131.73918600 Ry
     estimated scf accuracy    <       0.01132660 Ry

     total magnetization       =    -0.00 Bohr mag/cell
     absolute magnetization    =     0.01 Bohr mag/cell

     iteration #  6     ecut=    60.00 Ry     beta= 0.30
     Davidson diagonalization with overlap
     ethr =  8.85E-06,  avg # of iterations =  7.0

     negative rho (up, down):  1.297E-01 1.297E-01

     total cpu time spent up to now is      120.6 secs

     total energy              =   -1131.74237941 Ry
     estimated scf accuracy    <       0.04863188 Ry

     total magnetization       =     0.00 Bohr mag/cell
     absolute magnetization    =     0.00 Bohr mag/cell

     iteration #  7     ecut=    60.00 Ry     beta= 0.30
     Davidson diagonalization with overlap
     ethr =  8.85E-06,  avg # of iterations =  2.2

     negative rho (up, down):  1.299E-01 1.299E-01

     total cpu time spent up to now is      135.9 secs

     total energy              =   -1131.73968823 Ry
     estimated scf accuracy    <       0.01306096 Ry

     total magnetization       =    -0.00 Bohr mag/cell
     absolute magnetization    =     0.00 Bohr mag/cell

     iteration #  8     ecut=    60.00 Ry     beta= 0.30
     Davidson diagonalization with overlap
     ethr =  8.85E-06,  avg # of iterations =  3.5

     negative rho (up, down):  1.301E-01 1.301E-01

     total cpu time spent up to now is      153.0 secs

     total energy              =   -1131.74165337 Ry
     estimated scf accuracy    <       0.00017588 Ry

     total magnetization       =    -0.00 Bohr mag/cell
     absolute magnetization    =     0.00 Bohr mag/cell

     iteration #  9     ecut=    60.00 Ry     beta= 0.30
     Davidson diagonalization with overlap
     ethr =  1.37E-07,  avg # of iterations =  4.7

     negative rho (up, down):  1.301E-01 1.301E-01

     total cpu time spent up to now is      174.5 secs

     total energy              =   -1131.74174127 Ry
     estimated scf accuracy    <       0.00031201 Ry

     total magnetization       =     0.00 Bohr mag/cell
     absolute magnetization    =     0.00 Bohr mag/cell

     iteration # 10     ecut=    60.00 Ry     beta= 0.30
     Davidson diagonalization with overlap
     ethr =  1.37E-07,  avg # of iterations =  2.0

     negative rho (up, down):  1.302E-01 1.302E-01

     total cpu time spent up to now is      189.7 secs

     total energy              =   -1131.74174622 Ry
     estimated scf accuracy    <       0.00005272 Ry

     total magnetization       =     0.00 Bohr mag/cell
     absolute magnetization    =     0.00 Bohr mag/cell

     iteration # 11     ecut=    60.00 Ry     beta= 0.30
     Davidson diagonalization with overlap
     ethr =  4.12E-08,  avg # of iterations =  2.8

     negative rho (up, down):  1.303E-01 1.303E-01

     total cpu time spent up to now is      206.0 secs

     total energy              =   -1131.74175530 Ry
     estimated scf accuracy    <       0.00000466 Ry

     total magnetization       =    -0.00 Bohr mag/cell
     absolute magnetization    =     0.00 Bohr mag/cell

     iteration # 12     ecut=    60.00 Ry     beta= 0.30
     Davidson diagonalization with overlap
     ethr =  3.64E-09,  avg # of iterations =  2.5

     negative rho (up, down):  1.303E-01 1.303E-01

     total cpu time spent up to now is      223.3 secs

     total energy              =   -1131.74175685 Ry
     estimated scf accuracy    <       0.00000014 Ry

     total magnetization       =     0.00 Bohr mag/cell
     absolute magnetization    =     0.00 Bohr mag/cell

     iteration # 13     ecut=    60.00 Ry     beta= 0.30
     Davidson diagonalization with overlap
     ethr =  1.09E-10,  avg # of iterations =  4.7

     negative rho (up, down):  1.303E-01 1.303E-01

     Magnetic moment per site  (integrated on atomic sphere of radius R)
     atom   1 (R=0.098)  charge=  7.4838  magn= -0.0000
     atom   2 (R=0.098)  charge=  7.4838  magn= -0.0000
     atom   3 (R=0.098)  charge=  7.4838  magn= -0.0000
     atom   4 (R=0.098)  charge=  7.4838  magn= -0.0000
     atom   5 (R=0.098)  charge=  5.1112  magn=  0.0000
     atom   6 (R=0.098)  charge=  5.0837  magn= -0.0000
     atom   7 (R=0.098)  charge=  5.1292  magn=  0.0000
     atom   8 (R=0.098)  charge=  5.1112  magn=  0.0000
     atom   9 (R=0.098)  charge=  5.0837  magn=  0.0000
     atom  10 (R=0.098)  charge=  5.1292  magn=  0.0000
     atom  11 (R=0.098)  charge=  5.1112  magn=  0.0000
     atom  12 (R=0.098)  charge=  5.0837  magn=  0.0000
     atom  13 (R=0.098)  charge=  5.1112  magn=  0.0000
     atom  14 (R=0.098)  charge=  5.1292  magn=  0.0000
     atom  15 (R=0.098)  charge=  5.0837  magn=  0.0000
     atom  16 (R=0.098)  charge=  5.1292  magn=  0.0000

     total cpu time spent up to now is      244.4 secs

     End of self-consistent calculation

     =================== HUBBARD OCCUPATIONS ===================
     ------------------------ ATOM    1 ------------------------
     Tr[ns(  1)] (up, down, total) =   1.53083  1.53090  3.06173
     Atomic magnetic moment for atom   1 =  -0.00007
     SPIN  1
     eigenvalues:
       0.243  0.258  0.272  0.378  0.380
     eigenvectors (columns):
       0.000  0.000  0.064 -0.998 -0.030
      -0.559 -0.829  0.000 -0.000  0.000
      -0.000 -0.000 -0.995 -0.061 -0.073
      -0.000 -0.000 -0.071 -0.034  0.997
       0.829 -0.559  0.000 -0.000  0.000
     occupation matrix ns (before diag.):
       0.377  0.000  0.007  0.000  0.000
       0.000  0.253 -0.000  0.000  0.007
       0.007 -0.000  0.273 -0.008  0.000
       0.000  0.000 -0.008  0.380  0.000
       0.000  0.007  0.000  0.000  0.248
     SPIN  2
     eigenvalues:
       0.243  0.258  0.272  0.378  0.380
     eigenvectors (columns):
      -0.000  0.000  0.064 -0.998  0.030
      -0.559  0.829 -0.000  0.000 -0.000
       0.000 -0.000 -0.995 -0.061  0.073
       0.000 -0.000 -0.071 -0.034 -0.997
       0.829  0.559 -0.000  0.000  0.000
     occupation matrix ns (before diag.):
       0.377 -0.000  0.007  0.000 -0.000
      -0.000  0.253  0.000  0.000  0.007
       0.007  0.000  0.273 -0.008 -0.000
       0.000  0.000 -0.008  0.380 -0.000
      -0.000  0.007 -0.000 -0.000  0.248
     ------------------------ ATOM    2 ------------------------
     Tr[ns(  2)] (up, down, total) =   1.53087  1.53088  3.06175
     Atomic magnetic moment for atom   2 =  -0.00002
     SPIN  1
     eigenvalues:
       0.243  0.258  0.272  0.378  0.380
     eigenvectors (columns):
      -0.000 -0.000 -0.064 -0.998 -0.030
       0.559 -0.829  0.001 -0.000 -0.000
       0.000 -0.001 -0.995  0.061  0.073
       0.000  0.000  0.071 -0.034  0.997
       0.829  0.559 -0.000  0.000 -0.000
     occupation matrix ns (before diag.):
       0.377  0.000 -0.007  0.000  0.000
       0.000  0.253 -0.000  0.000 -0.007
      -0.007 -0.000  0.273  0.008  0.000
       0.000  0.000  0.008  0.380 -0.000
       0.000 -0.007  0.000 -0.000  0.248
     SPIN  2
     eigenvalues:
       0.243  0.258  0.272  0.378  0.380
     eigenvectors (columns):
       0.000 -0.000 -0.064 -0.998  0.029
       0.559  0.829 -0.001  0.000  0.000
       0.000 -0.001 -0.995  0.062 -0.073
       0.000  0.000  0.071 -0.034 -0.997
       0.829 -0.559  0.000 -0.000  0.000
     occupation matrix ns (before diag.):
       0.377 -0.000 -0.007  0.000  0.000
      -0.000  0.253  0.000 -0.000 -0.007
      -0.007  0.000  0.273  0.008 -0.000
       0.000 -0.000  0.008  0.380  0.000
       0.000 -0.007 -0.000  0.000  0.248
     ------------------------ ATOM    3 ------------------------
     Tr[ns(  3)] (up, down, total) =   1.53085  1.53088  3.06173
     Atomic magnetic moment for atom   3 =  -0.00003
     SPIN  1
     eigenvalues:
       0.243  0.258  0.272  0.378  0.380
     eigenvectors (columns):
       0.000 -0.000 -0.064 -0.998 -0.029
       0.559 -0.829  0.000  0.000  0.000
      -0.000 -0.000 -0.995  0.062  0.073
       0.000  0.000  0.071 -0.034  0.997
       0.829  0.559 -0.000  0.000 -0.000
     occupation matrix ns (before diag.):
       0.377 -0.000 -0.007  0.000 -0.000
      -0.000  0.253 -0.000  0.000 -0.007
      -0.007 -0.000  0.273  0.008  0.000
       0.000  0.000  0.008  0.380 -0.000
      -0.000 -0.007  0.000 -0.000  0.248
     SPIN  2
     eigenvalues:
       0.243  0.258  0.272  0.378  0.380
     eigenvectors (columns):
       0.000 -0.000 -0.064 -0.998  0.030
       0.559  0.829 -0.000 -0.000  0.000
       0.000 -0.000 -0.995  0.061 -0.073
      -0.000  0.000  0.071 -0.034 -0.997
       0.829 -0.559  0.000  0.000 -0.000
     occupation matrix ns (before diag.):
       0.377  0.000 -0.007  0.000 -0.000
       0.000  0.253  0.000 -0.000 -0.007
      -0.007  0.000  0.273  0.008 -0.000
       0.000 -0.000  0.008  0.380  0.000
      -0.000 -0.007 -0.000  0.000  0.248
     ------------------------ ATOM    4 ------------------------
     Tr[ns(  4)] (up, down, total) =   1.53087  1.53087  3.06174
     Atomic magnetic moment for atom   4 =  -0.00001
     SPIN  1
     eigenvalues:
       0.243  0.258  0.272  0.378  0.380
     eigenvectors (columns):
      -0.000 -0.000  0.064  0.998  0.029
      -0.559 -0.829 -0.000  0.000  0.000
       0.000  0.000 -0.995  0.062  0.073
       0.000  0.000 -0.071  0.034 -0.997
       0.829 -0.559 -0.000  0.000  0.000
     occupation matrix ns (before diag.):
       0.377  0.000  0.007  0.000  0.000
       0.000  0.253  0.000 -0.000  0.007
       0.007  0.000  0.273 -0.008  0.000
       0.000 -0.000 -0.008  0.380  0.000
       0.000  0.007  0.000  0.000  0.248
     SPIN  2
     eigenvalues:
       0.243  0.258  0.272  0.378  0.380
     eigenvectors (columns):
       0.000  0.000  0.064  0.998  0.030
      -0.559 -0.829  0.000 -0.000 -0.000
      -0.000 -0.000 -0.995  0.062  0.073
      -0.000 -0.000 -0.071  0.034 -0.997
       0.829 -0.559  0.000 -0.000 -0.000
     occupation matrix ns (before diag.):
       0.377 -0.000  0.007  0.000 -0.000
      -0.000  0.253 -0.000  0.000  0.007
       0.007 -0.000  0.273 -0.008 -0.000
       0.000  0.000 -0.008  0.380  0.000
      -0.000  0.007 -0.000  0.000  0.248
     ------------------------ ATOM    5 ------------------------
     Tr[ns(  5)] (up, down, total) =   2.46174  2.46173  4.92347
     Atomic magnetic moment for atom   5 =   0.00001
     SPIN  1
     eigenvalues:
       0.770  0.844  0.847
     eigenvectors (columns):
       0.016  1.000 -0.002
       0.000  0.002  1.000
       1.000 -0.016  0.000
     occupation matrix ns (before diag.):
       0.844 -0.000 -0.001
      -0.000  0.847 -0.000
      -0.001 -0.000  0.770
     SPIN  2
     eigenvalues:
       0.770  0.844  0.847
     eigenvectors (columns):
       0.016 -1.000 -0.002
      -0.000  0.002 -1.000
       1.000  0.016  0.000
     occupation matrix ns (before diag.):
       0.844  0.000 -0.001
       0.000  0.847  0.000
      -0.001  0.000  0.770
     ------------------------ ATOM    6 ------------------------
     Tr[ns(  6)] (up, down, total) =   2.45671  2.45671  4.91342
     Atomic magnetic moment for atom   6 =  -0.00000
     SPIN  1
     eigenvalues:
       0.763  0.845  0.849
     eigenvectors (columns):
       1.000  0.000 -0.003
      -0.000  1.000  0.001
      -0.003  0.001 -1.000
     occupation matrix ns (before diag.):
       0.763  0.000  0.000
       0.000  0.845 -0.000
       0.000 -0.000  0.849
     SPIN  2
     eigenvalues:
       0.763  0.845  0.849
     eigenvectors (columns):
       1.000  0.000  0.003
       0.000 -1.000  0.001
      -0.003  0.001  1.000
     occupation matrix ns (before diag.):
       0.763 -0.000  0.000
      -0.000  0.845  0.000
       0.000  0.000  0.849
     ------------------------ ATOM    7 ------------------------
     Tr[ns(  7)] (up, down, total) =   2.48911  2.48910  4.97821
     Atomic magnetic moment for atom   7 =   0.00001
     SPIN  1
     eigenvalues:
       0.765  0.861  0.863
     eigenvectors (columns):
      -0.029  0.956 -0.292
      -0.999 -0.034 -0.013
       0.022 -0.292 -0.956
     occupation matrix ns (before diag.):
       0.861 -0.003  0.001
      -0.003  0.765  0.002
       0.001  0.002  0.863
     SPIN  2
     eigenvalues:
       0.765  0.861  0.863
     eigenvectors (columns):
      -0.029  0.956 -0.293
      -0.999 -0.034 -0.013
       0.022 -0.292 -0.956
     occupation matrix ns (before diag.):
       0.861 -0.003  0.001
      -0.003  0.765  0.002
       0.001  0.002  0.863
     ------------------------ ATOM    8 ------------------------
     Tr[ns(  8)] (up, down, total) =   2.46174  2.46173  4.92348
     Atomic magnetic moment for atom   8 =   0.00001
     SPIN  1
     eigenvalues:
       0.770  0.844  0.847
     eigenvectors (columns):
      -0.016  1.000 -0.000
      -0.000  0.000  1.000
       1.000  0.016  0.000
     occupation matrix ns (before diag.):
       0.844 -0.000  0.001
      -0.000  0.847  0.000
       0.001  0.000  0.770
     SPIN  2
     eigenvalues:
       0.770  0.844  0.847
     eigenvectors (columns):
      -0.016 -1.000 -0.000
       0.000  0.000 -1.000
       1.000 -0.016  0.000
     occupation matrix ns (before diag.):
       0.844  0.000  0.001
       0.000  0.847 -0.000
       0.001 -0.000  0.770
     ------------------------ ATOM    9 ------------------------
     Tr[ns(  9)] (up, down, total) =   2.45671  2.45670  4.91342
     Atomic magnetic moment for atom   9 =   0.00001
     SPIN  1
     eigenvalues:
       0.763  0.845  0.849
     eigenvectors (columns):
      -1.000  0.000 -0.003
       0.000  1.000  0.001
      -0.003 -0.001  1.000
     occupation matrix ns (before diag.):
       0.763  0.000 -0.000
       0.000  0.845  0.000
      -0.000  0.000  0.849
     SPIN  2
     eigenvalues:
       0.763  0.845  0.849
     eigenvectors (columns):
      -1.000  0.000  0.003
      -0.000 -1.000  0.002
      -0.003 -0.002 -1.000
     occupation matrix ns (before diag.):
       0.763 -0.000 -0.000
      -0.000  0.845 -0.000
      -0.000 -0.000  0.849
     ------------------------ ATOM   10 ------------------------
     Tr[ns( 10)] (up, down, total) =   2.48911  2.48910  4.97820
     Atomic magnetic moment for atom  10 =   0.00001
     SPIN  1
     eigenvalues:
       0.765  0.861  0.863
     eigenvectors (columns):
      -0.029  0.956  0.292
       0.999  0.034 -0.013
       0.022 -0.292  0.956
     occupation matrix ns (before diag.):
       0.861  0.003  0.001
       0.003  0.765 -0.002
       0.001 -0.002  0.863
     SPIN  2
     eigenvalues:
       0.765  0.861  0.863
     eigenvectors (columns):
      -0.029  0.956  0.293
       0.999  0.034 -0.013
       0.022 -0.293  0.956
     occupation matrix ns (before diag.):
       0.861  0.003  0.001
       0.003  0.765 -0.002
       0.001 -0.002  0.863
     ------------------------ ATOM   11 ------------------------
     Tr[ns( 11)] (up, down, total) =   2.46173  2.46173  4.92346
     Atomic magnetic moment for atom  11 =   0.00000
     SPIN  1
     eigenvalues:
       0.770  0.844  0.847
     eigenvectors (columns):
       0.016  1.000 -0.002
       0.000  0.002  1.000
       1.000 -0.016  0.000
     occupation matrix ns (before diag.):
       0.844 -0.000 -0.001
      -0.000  0.847 -0.000
      -0.001 -0.000  0.770
     SPIN  2
     eigenvalues:
       0.770  0.844  0.847
     eigenvectors (columns):
       0.016 -1.000 -0.001
      -0.000  0.001 -1.000
       1.000  0.016  0.000
     occupation matrix ns (before diag.):
       0.844  0.000 -0.001
       0.000  0.847  0.000
      -0.001  0.000  0.770
     ------------------------ ATOM   12 ------------------------
     Tr[ns( 12)] (up, down, total) =   2.45672  2.45670  4.91342
     Atomic magnetic moment for atom  12 =   0.00003
     SPIN  1
     eigenvalues:
       0.763  0.845  0.849
     eigenvectors (columns):
       1.000  0.000  0.003
       0.000 -1.000  0.001
      -0.003  0.001  1.000
     occupation matrix ns (before diag.):
       0.763 -0.000  0.000
      -0.000  0.845  0.000
       0.000  0.000  0.849
     SPIN  2
     eigenvalues:
       0.763  0.845  0.849
     eigenvectors (columns):
       1.000  0.000 -0.003
       0.000  1.000  0.002
      -0.003  0.002 -1.000
     occupation matrix ns (before diag.):
       0.763 -0.000  0.000
      -0.000  0.845 -0.000
       0.000 -0.000  0.849
     ------------------------ ATOM   13 ------------------------
     Tr[ns( 13)] (up, down, total) =   2.46176  2.46173  4.92349
     Atomic magnetic moment for atom  13 =   0.00003
     SPIN  1
     eigenvalues:
       0.770  0.844  0.847
     eigenvectors (columns):
      -0.016 -1.000  0.000
       0.000 -0.000 -1.000
       1.000 -0.016  0.000
     occupation matrix ns (before diag.):
       0.844 -0.000  0.001
      -0.000  0.847 -0.000
       0.001 -0.000  0.770
     SPIN  2
     eigenvalues:
       0.770  0.844  0.847
     eigenvectors (columns):
      -0.016  1.000  0.000
      -0.000 -0.000  1.000
       1.000  0.016  0.000
     occupation matrix ns (before diag.):
       0.844  0.000  0.001
       0.000  0.847  0.000
       0.001  0.000  0.770
     ------------------------ ATOM   14 ------------------------
     Tr[ns( 14)] (up, down, total) =   2.48911  2.48910  4.97821
     Atomic magnetic moment for atom  14 =   0.00000
     SPIN  1
     eigenvalues:
       0.765  0.861  0.863
     eigenvectors (columns):
       0.029  0.956  0.292
      -0.999  0.034 -0.013
       0.022  0.292 -0.956
     occupation matrix ns (before diag.):
       0.861  0.003 -0.001
       0.003  0.765  0.002
      -0.001  0.002  0.863
     SPIN  2
     eigenvalues:
       0.765  0.861  0.863
     eigenvectors (columns):
       0.029  0.956  0.293
      -0.999  0.034 -0.013
       0.022  0.292 -0.956
     occupation matrix ns (before diag.):
       0.861  0.003 -0.001
       0.003  0.765  0.002
      -0.001  0.002  0.863
     ------------------------ ATOM   15 ------------------------
     Tr[ns( 15)] (up, down, total) =   2.45672  2.45670  4.91341
     Atomic magnetic moment for atom  15 =   0.00002
     SPIN  1
     eigenvalues:
       0.763  0.845  0.849
     eigenvectors (columns):
      -1.000 -0.000 -0.003
      -0.000  1.000  0.000
      -0.003 -0.000  1.000
     occupation matrix ns (before diag.):
       0.763 -0.000 -0.000
      -0.000  0.845  0.000
      -0.000  0.000  0.849
     SPIN  2
     eigenvalues:
       0.763  0.845  0.849
     eigenvectors (columns):
      -1.000 -0.000  0.003
       0.000 -1.000  0.000
      -0.003 -0.000 -1.000
     occupation matrix ns (before diag.):
       0.763  0.000 -0.000
       0.000  0.845 -0.000
      -0.000 -0.000  0.849
     ------------------------ ATOM   16 ------------------------
     Tr[ns( 16)] (up, down, total) =   2.48910  2.48910  4.97820
     Atomic magnetic moment for atom  16 =   0.00001
     SPIN  1
     eigenvalues:
       0.765  0.861  0.863
     eigenvectors (columns):
       0.029  0.956 -0.292
       0.999 -0.034 -0.013
       0.022  0.292  0.956
     occupation matrix ns (before diag.):
       0.861 -0.003 -0.001
      -0.003  0.765 -0.002
      -0.001 -0.002  0.863
     SPIN  2
     eigenvalues:
       0.765  0.861  0.863
     eigenvectors (columns):
       0.029  0.956 -0.293
       0.999 -0.034 -0.012
       0.022  0.293  0.956
     occupation matrix ns (before diag.):
       0.861 -0.003 -0.001
      -0.003  0.765 -0.002
      -0.001 -0.002  0.863

     Number of occupied Hubbard levels =   71.5073

 ------ SPIN UP ------------


          k = 0.0000 0.0000 0.0000 ( 11839 PWs)   bands (ev):

   -71.3779 -71.3488 -71.3451 -71.3139 -35.4231 -35.4122 -35.4020 -35.3926
   -35.3869 -35.3844 -35.3782 -35.3776 -35.3739 -35.3696 -35.3542 -35.3485
   -11.7631 -11.3816 -11.3193 -10.8138 -10.7600 -10.5866 -10.5392 -10.5361
    -9.8802  -9.8372  -9.7395  -9.7016  -2.3208  -2.2876  -2.0389  -2.0167
    -0.5219   0.6569   0.8089   1.0958   1.0991   1.1595   1.1925   1.2608
     1.3928   1.5277   1.6341   1.7343   1.7961   1.8788   1.9333   2.0033
     2.0577   2.2157   2.2894   2.2917   2.5671   2.6627   2.6750   2.7039
     2.7446   2.8873   2.9613   2.9680   3.0046   3.0153   3.2060   4.0890
     7.2396   7.3303   7.4155   7.9696   8.0430   9.4052   9.8230   9.8732
     9.9411   9.9827  10.0122  10.4433  10.4785  10.6283  10.7307  10.7589
    11.8882  12.8285  13.3866  13.4542  15.4543

          k = 0.0000 0.0000 0.4807 ( 11878 PWs)   bands (ev):

   -71.3879 -71.3606 -71.3567 -71.3279 -35.4206 -35.4103 -35.3980 -35.3902
   -35.3788 -35.3747 -35.3746 -35.3693 -35.3663 -35.3646 -35.3523 -35.3453
   -11.6081 -11.2506 -11.1638 -10.8027 -10.2887 -10.2455 -10.2244 -10.2196
    -9.8628  -9.8193  -9.7243  -9.6855  -2.3050  -2.2753  -2.0075  -1.9849
    -0.4889  -0.4160  -0.3784  -0.0437  -0.0326   0.1877   0.2130   0.7517
     0.7521   1.1901   1.3289   1.4237   1.4921   1.7331   1.7705   2.0236
     2.0988   2.1202   2.2491   2.2531   2.3632   2.5316   2.5344   2.5774
     2.6663   2.9036   3.0214   3.4027   3.4102   3.4992   3.5144   4.0919
     7.2644   8.2616   8.2831   8.3013   8.3208   9.4186   9.7824   9.8471
     9.8524  10.1353  10.1890  10.4844  10.7230  11.5818  11.8163  12.2332
    13.7284  14.1047  14.5008  14.8203  15.9419

          k = 0.0000 0.0000-0.9614 ( 11894 PWs)   bands (ev):

   -71.3986 -71.3724 -71.3683 -71.3387 -35.4175 -35.4070 -35.3949 -35.3846
   -35.3719 -35.3715 -35.3679 -35.3637 -35.3631 -35.3573 -35.3500 -35.3414
   -11.4908 -11.1708 -11.0709 -10.7930  -9.8827  -9.8354  -9.7560  -9.7552
    -9.7136  -9.7109  -9.7086  -9.6688  -2.2916  -2.2581  -1.9970  -1.9857
    -1.4541  -1.4451  -1.4029  -1.4012  -0.4619  -0.3264  -0.2918  -0.2146
    -0.1616   1.2627   1.4204   1.5483   1.6516   1.6620   1.6756   1.6954
     1.7233   2.0466   2.0679   2.0819   2.0925   2.2695   2.2724   2.3272
     2.5318   2.9099   3.0286   3.9769   4.0056   4.0960   4.1126   4.1280
     7.2642   9.1358   9.1570   9.1826   9.2066   9.4651   9.8562   9.9412
    10.1040  10.3333  10.4282  10.5321  10.6889  11.7016  12.0720  12.9753
    15.2373  15.4200  15.4490  15.6934  16.2495

          k = 0.0000 0.2445 0.0000 ( 11890 PWs)   bands (ev):

   -71.3736 -71.3531 -71.3412 -71.3195 -35.4181 -35.4084 -35.4035 -35.3944
   -35.3878 -35.3854 -35.3780 -35.3769 -35.3749 -35.3709 -35.3535 -35.3495
   -11.6864 -11.4177 -11.2009 -10.7969 -10.7563 -10.5961 -10.5144 -10.5040
   -10.0577 -10.0246  -9.7341  -9.7073  -2.3148  -2.2960  -1.5705  -1.4926
    -0.3774   0.5683   0.6655   0.8246   0.9797   1.0553   1.1096   1.1626
     1.2259   1.4315   1.4794   1.4903   1.8885   2.0047   2.0249   2.0764
     2.1190   2.2119   2.3530   2.3945   2.5029   2.5180   2.5515   2.6432
     2.7204   2.8442   2.9227   2.9665   2.9741   3.0669   3.1877   3.9276
     7.3381   7.3591   7.6141   8.2479   8.3142   9.0868   9.6006   9.6791
     9.8780   9.9464  10.0245  10.3635  10.5482  10.6206  11.0843  11.3242
    11.8232  13.0895  13.1722  13.8412  14.8634

          k = 0.0000 0.2445 0.4807 ( 11880 PWs)   bands (ev):

   -71.3838 -71.3646 -71.3527 -71.3324 -35.4167 -35.4070 -35.4008 -35.3928
   -35.3786 -35.3750 -35.3735 -35.3696 -35.3675 -35.3658 -35.3514 -35.3465
   -11.5285 -11.2792 -11.0186 -10.7318 -10.3436 -10.2758 -10.2190 -10.2080
   -10.0288  -9.9913  -9.7187  -9.6913  -2.3009  -2.2845  -1.5366  -1.4602
    -0.3749  -0.3462  -0.3390  -0.0930  -0.0558   0.1885   0.2090   0.7055
     0.7457   0.8433   0.9849   1.1887   1.4324   1.4729   1.7155   1.7813
     1.8573   2.1792   2.2880   2.3735   2.4843   2.4925   2.5257   2.7491
     2.8768   2.8895   2.9123   3.3577   3.3794   3.4973   3.5164   3.9337
     7.5855   8.2630   8.3018   8.4855   8.5206   9.1046   9.5522   9.5942
     9.9148  10.1365  10.1876  10.3920  11.1708  11.7358  12.3075  12.4806
    13.8968  14.0427  14.2052  14.9357  15.4510

          k = 0.0000 0.2445-0.9614 ( 11886 PWs)   bands (ev):

   -71.3946 -71.3761 -71.3640 -71.3432 -35.4136 -35.4036 -35.3979 -35.3877
   -35.3715 -35.3702 -35.3686 -35.3643 -35.3632 -35.3586 -35.3489 -35.3428
   -11.4136 -11.1943 -10.9184 -10.7163 -10.0661 -10.0372  -9.7730  -9.7595
    -9.7302  -9.7153  -9.7029  -9.6748  -2.2876  -2.2688  -1.6250  -1.5619
    -1.4596  -1.4120  -1.3401  -1.2708  -0.3566  -0.2992  -0.2820  -0.0598
    -0.0175   0.7411   1.0619   1.0703   1.1172   1.3958   1.4708   1.6366
     1.7220   1.7259   2.1499   2.2494   2.3178   2.3354   2.4561   2.7683
     2.8472   2.8955   2.9116   3.8646   3.8847   3.9315   4.1146   4.1252
     7.5906   9.0234   9.1849   9.2554   9.2594   9.3037   9.8393   9.9208
     9.9273  10.3266  10.4152  10.4308  11.1925  12.0252  12.4798  13.2336
    15.0926  15.1451  15.6104  15.6410  16.1698

          k = 0.0000-0.4891 0.0000 ( 11860 PWs)   bands (ev):

   -71.3634 -71.3632 -71.3311 -71.3309 -35.4097 -35.4095 -35.4005 -35.4004
   -35.3875 -35.3873 -35.3771 -35.3769 -35.3739 -35.3738 -35.3517 -35.3515
   -11.5304 -11.5303 -10.9495 -10.9495 -10.6410 -10.6409 -10.3746 -10.3745
   -10.3481 -10.3481  -9.7208  -9.7207  -2.3041  -2.3040  -0.4299  -0.4299
    -0.2460  -0.2459   0.0416   0.0417   0.9476   0.9477   1.1271   1.1272
     1.2007   1.2008   1.4710   1.4710   2.0728   2.0728   2.1096   2.1096
     2.1853   2.1853   2.2422   2.2423   2.4223   2.4223   2.5496   2.5497
     2.7392   2.7392   2.9619   2.9620   3.1431   3.1432   3.4689   3.4690
     7.3553   7.3554   8.3484   8.3485   8.9175   8.9176   8.9787   8.9788
     9.9442   9.9443  10.1504  10.1505  10.5969  10.5971  11.5851  11.5853
    12.4035  12.4037  13.8661  13.8661  15.1160

          k = 0.0000-0.4891 0.4807 ( 11880 PWs)   bands (ev):

   -71.3742 -71.3740 -71.3429 -71.3427 -35.4084 -35.4083 -35.3997 -35.3995
   -35.3771 -35.3769 -35.3705 -35.3704 -35.3683 -35.3681 -35.3491 -35.3490
   -11.3768 -11.3767 -10.6496 -10.6496 -10.4968 -10.4967 -10.1912 -10.1911
   -10.1648 -10.1648  -9.7052  -9.7051  -2.2926  -2.2925  -0.4738  -0.4738
    -0.3380  -0.3380  -0.1491  -0.1490   0.0068   0.0068   0.0590   0.0591
     0.2145   0.2146   1.1726   1.1726   1.2456   1.2457   1.4574   1.4575
     2.0534   2.0534   2.4228   2.4229   2.4399   2.4400   2.5372   2.5373
     3.1920   3.1920   3.2262   3.2262   3.3758   3.3758   3.5768   3.5769
     8.2109   8.2110   8.4210   8.4211   8.9921   8.9922   9.0316   9.0317
    10.0856  10.0857  10.2115  10.2116  11.6178  11.6180  13.3610  13.3612
    13.4899  13.4900  14.5658  14.5659  15.4873

          k = 0.0000-0.4891-0.9614 ( 11884 PWs)   bands (ev):

   -71.3853 -71.3851 -71.3537 -71.3535 -35.4055 -35.4053 -35.3956 -35.3955
   -35.3704 -35.3702 -35.3673 -35.3671 -35.3614 -35.3612 -35.3461 -35.3460
   -11.2758 -11.2757 -10.5151 -10.5150 -10.4463 -10.4463  -9.7690  -9.7689
    -9.7252  -9.7251  -9.6891  -9.6890  -2.2787  -2.2786  -1.4908  -1.4907
    -1.4362  -1.4361  -0.3175  -0.3174  -0.2754  -0.2754  -0.1060  -0.1059
     0.1120   0.1120   0.4437   0.4438   0.5041   0.5042   1.5678   1.5678
     1.7282   1.7283   2.2971   2.2972   2.3353   2.3354   2.4848   2.4849
     3.4587   3.4588   3.4900   3.4900   3.4916   3.4916   4.1195   4.1196
     8.3400   8.3402   9.1934   9.1935   9.5311   9.5312   9.5795   9.5796
    10.1329  10.1330  10.3895  10.3897  11.8108  11.8110  14.0367  14.0368
    14.1757  14.1758  15.8499  15.8500  16.1147

          k = 0.2500 0.0000 0.0000 ( 11841 PWs)   bands (ev):

   -71.3729 -71.3499 -71.3442 -71.3200 -35.4215 -35.4137 -35.4007 -35.3941
   -35.3856 -35.3829 -35.3790 -35.3754 -35.3735 -35.3660 -35.3576 -35.3515
   -11.6681 -11.3570 -11.2401 -10.7930 -10.7391 -10.5497 -10.5457 -10.5242
    -9.9714  -9.9477  -9.8725  -9.8434  -2.0359  -2.0201  -1.7678  -1.7155
    -0.3614   0.6528   0.6721   0.8254   0.9106   1.0260   1.1126   1.1935
     1.2562   1.3225   1.4839   1.7902   1.8492   1.8968   1.9366   2.0161
     2.0508   2.2294   2.3453   2.5371   2.5830   2.5972   2.6505   2.6573
     2.7476   2.7734   2.7815   2.8378   2.8843   2.9271   3.0693   3.9557
     7.6580   7.7363   7.7894   7.9835   8.0343   9.4316   9.5208   9.5560
     9.5901   9.9277   9.9769  10.2427  10.6036  10.7188  11.0605  11.3226
    11.8240  13.0885  13.1315  13.9204  14.9245

          k = 0.2500 0.0000 0.4807 ( 11853 PWs)   bands (ev):

   -71.3831 -71.3612 -71.3559 -71.3329 -35.4190 -35.4118 -35.3969 -35.3914
   -35.3782 -35.3742 -35.3707 -35.3705 -35.3661 -35.3627 -35.3554 -35.3483
   -11.5035 -11.1954 -11.0809 -10.7314 -10.3307 -10.2438 -10.2285 -10.2186
    -9.9537  -9.9237  -9.8554  -9.8254  -2.0068  -1.9897  -1.7494  -1.6994
    -0.4178  -0.3857  -0.3270  -0.0874  -0.0775   0.3582   0.3702   0.7452
     0.7554   0.8599   0.9429   1.1921   1.3244   1.3287   1.6533   1.6898
     1.8192   2.0630   2.1257   2.2182   2.5582   2.5882   2.6433   2.8003
     2.8365   2.9569   2.9936   3.3747   3.4146   3.4729   3.4822   3.9600
     7.6621   8.2877   8.3044   8.5003   8.5292   9.4684   9.5325   9.8143
     9.8199   9.8337   9.8608  10.2822  11.1148  11.5849  12.5229  12.6170
    13.9139  14.0642  14.4956  14.6541  15.4998

          k = 0.2500 0.0000-0.9614 ( 11906 PWs)   bands (ev):

   -71.3939 -71.3727 -71.3673 -71.3437 -35.4159 -35.4085 -35.3936 -35.3863
   -35.3709 -35.3678 -35.3666 -35.3652 -35.3598 -35.3590 -35.3530 -35.3446
   -11.3826 -11.0960 -10.9946 -10.7229  -9.9617  -9.9553  -9.8689  -9.8420
    -9.7498  -9.7478  -9.7200  -9.7174  -2.0014  -1.9894  -1.7235  -1.6692
    -1.4483  -1.4401  -1.4154  -1.4115  -0.3008  -0.2089  -0.1695  -0.1595
    -0.1309   0.8554   1.0692   1.0831   1.0856   1.3614   1.3715   1.5326
     1.6571   1.6822   2.1090   2.1569   2.2195   2.2630   2.6465   2.8331
     2.8352   2.9467   2.9971   3.9590   3.9796   3.9965   3.9985   4.0065
     7.6652   9.1641   9.1867   9.2911   9.3123   9.4681   9.5735   9.9892
    10.0863  10.1396  10.1666  10.3113  11.0628  11.6564  12.9324  13.4486
    15.2660  15.4817  15.5885  15.7433  15.8801

          k = 0.2500 0.2445 0.0000 ( 11848 PWs)   bands (ev):

   -71.3687 -71.3485 -71.3460 -71.3250 -35.4171 -35.4099 -35.4023 -35.3959
   -35.3864 -35.3839 -35.3795 -35.3765 -35.3726 -35.3672 -35.3568 -35.3525
   -11.5818 -11.2790 -11.2400 -10.8324 -10.6870 -10.5565 -10.5091 -10.5063
   -10.0544 -10.0392  -9.9667  -9.9370  -1.7608  -1.7475  -1.5612  -1.4902
    -0.2136   0.5583   0.5851   0.8220   0.8684   0.9319   0.9746   1.0691
     1.1127   1.2745   1.3307   1.4444   1.6471   1.8997   2.0502   2.0918
     2.1191   2.2021   2.2329   2.5183   2.5195   2.5515   2.6058   2.6448
     2.6804   2.7587   2.8084   2.9030   2.9381   2.9993   3.0619   3.8239
     7.7407   7.7620   7.9340   8.2632   8.3060   9.2253   9.4986   9.5634
     9.6102   9.6388   9.6844  10.1118  10.8213  11.0416  11.0698  11.7632
    11.7709  13.3288  13.5784  13.6263  15.0135

          k = 0.2500 0.2445 0.4807 ( 11876 PWs)   bands (ev):

   -71.3790 -71.3599 -71.3572 -71.3373 -35.4154 -35.4085 -35.3998 -35.3940
   -35.3779 -35.3744 -35.3710 -35.3697 -35.3672 -35.3639 -35.3545 -35.3495
   -11.4094 -11.1133 -11.0508 -10.6745 -10.3904 -10.2634 -10.2259 -10.2108
   -10.0235 -10.0016  -9.9472  -9.9187  -1.7447  -1.7344  -1.5297  -1.4568
    -0.3760  -0.3443  -0.1818  -0.1321  -0.1083   0.3580   0.3724   0.6731
     0.7504   0.8830   0.9220   0.9791   1.0534   1.2544   1.2559   1.6200
     1.6409   1.7885   1.8298   2.1217   2.7077   2.7860   2.8194   2.8530
     2.8942   2.9606   3.0380   3.3438   3.3836   3.4661   3.4810   3.8304
     7.9147   8.4552   8.4804   8.5401   8.5509   9.2411   9.5323   9.5842
     9.6082   9.8239   9.8379  10.1397  11.7351  12.2564  12.5230  12.7005
    13.9288  14.1657  14.3058  14.6216  15.5177

          k = 0.2500 0.2445-0.9614 ( 11872 PWs)   bands (ev):

   -71.3898 -71.3711 -71.3684 -71.3480 -35.4123 -35.4052 -35.3966 -35.3894
   -35.3705 -35.3674 -35.3666 -35.3648 -35.3609 -35.3602 -35.3519 -35.3460
   -11.2873 -11.0195 -10.9443 -10.6636 -10.0914 -10.0485  -9.9559  -9.9165
    -9.7657  -9.7520  -9.7360  -9.7217  -1.7202  -1.7191  -1.6195  -1.5507
    -1.4544  -1.4219  -1.3349  -1.2791  -0.1876  -0.1401  -0.1215  -0.0556
    -0.0239   0.7817   0.9177   1.0208   1.0394   1.1113   1.1232   1.1524
     1.1534   1.4103   1.4457   2.1209   2.7244   2.7541   2.8378   2.8634
     2.8891   2.9453   3.0554   3.8236   3.8680   3.8746   3.9969   4.0090
     7.9216   9.1679   9.2625   9.3048   9.3144   9.3803   9.5573   9.8632
     9.9149  10.1407  10.1577  10.1668  11.7010  12.4394  12.8825  13.5758
    15.1233  15.1492  15.6972  15.7134  15.8686

          k = 0.2500-0.4891 0.0000 ( 11856 PWs)   bands (ev):

   -71.3588 -71.3586 -71.3360 -71.3358 -35.4087 -35.4085 -35.4021 -35.4020
   -35.3860 -35.3858 -35.3786 -35.3785 -35.3701 -35.3699 -35.3548 -35.3547
   -11.4047 -11.4046 -10.9901 -10.9900 -10.5882 -10.5881 -10.3705 -10.3705
   -10.3527 -10.3527  -9.9546  -9.9545  -1.7478  -1.7477  -0.4163  -0.4163
    -0.3127  -0.3126   0.2383   0.2384   0.8129   0.8129   0.9625   0.9625
     1.1348   1.1349   1.4787   1.4788   1.5457   1.5457   2.0043   2.0043
     2.2525   2.2526   2.2924   2.2925   2.4539   2.4540   2.6148   2.6149
     2.7477   2.7479   2.9317   2.9318   3.0089   3.0090   3.4366   3.4366
     7.7549   7.7550   8.5554   8.5555   8.9367   8.9369   8.9752   8.9753
     9.5671   9.5672   9.8127   9.8128  10.9798  10.9799  11.5422  11.5423
    12.8358  12.8360  14.0555  14.0556  14.8194

          k = 0.2500-0.4891 0.4807 ( 11888 PWs)   bands (ev):

   -71.3695 -71.3693 -71.3475 -71.3473 -35.4073 -35.4072 -35.4010 -35.4009
   -35.3763 -35.3761 -35.3700 -35.3698 -35.3667 -35.3666 -35.3522 -35.3520
   -11.2261 -11.2260 -10.6896 -10.6896 -10.4690 -10.4690 -10.1876 -10.1875
   -10.1736 -10.1736  -9.9351  -9.9350  -1.7342  -1.7341  -0.4626  -0.4626
    -0.3793  -0.3793  -0.1539  -0.1539  -0.0781  -0.0781   0.2750   0.2750
     0.3804   0.3806   0.9911   0.9912   1.1547   1.1548   1.2491   1.2492
     1.5120   1.5120   1.7660   1.7661   2.8264   2.8265   2.9299   2.9300
     3.1827   3.1827   3.2377   3.2377   3.3540   3.3540   3.5342   3.5342
     8.4466   8.4467   8.6170   8.6171   9.0059   9.0060   9.0314   9.0315
     9.7930   9.7931   9.8601   9.8602  12.4027  12.4029  13.3952  13.3954
    13.4836  13.4837  14.7280  14.7282  15.1114

          k = 0.2500-0.4891-0.9614 ( 11868 PWs)   bands (ev):

   -71.3804 -71.3803 -71.3583 -71.3581 -35.4042 -35.4041 -35.3972 -35.3971
   -35.3692 -35.3691 -35.3643 -35.3641 -35.3625 -35.3623 -35.3492 -35.3490
   -11.1140 -11.1139 -10.5437 -10.5437 -10.4284 -10.4283  -9.9412  -9.9411
    -9.7614  -9.7613  -9.7314  -9.7313  -1.7098  -1.7097  -1.4853  -1.4852
    -1.4475  -1.4474  -0.2686  -0.2685  -0.1829  -0.1828  -0.1428  -0.1427
     0.3095   0.3095   0.4505   0.4506   0.4971   0.4972   1.0440   1.0440
     1.1232   1.1232   1.6386   1.6387   2.8628   2.8628   2.9346   2.9347
     3.4077   3.4078   3.4844   3.4845   3.5038   3.5039   4.0025   4.0026
     8.5553   8.5554   9.3204   9.3205   9.5395   9.5396   9.5771   9.5772
     9.8225   9.8226  10.1578  10.1580  12.6032  12.6034  14.0291  14.0294
    14.2259  14.2261  15.7332  15.7333  16.0877

          k =-0.5000 0.0000 0.0000 ( 11846 PWs)   bands (ev):

   -71.3614 -71.3612 -71.3328 -71.3326 -35.4176 -35.4175 -35.3976 -35.3974
   -35.3824 -35.3823 -35.3792 -35.3791 -35.3653 -35.3652 -35.3585 -35.3584
   -11.4814 -11.4813 -10.9464 -10.9463 -10.5794 -10.5793 -10.3865 -10.3864
   -10.3652 -10.3651  -9.8584  -9.8583  -2.0280  -2.0279  -0.4656  -0.4654
    -0.3718  -0.3716   0.1664   0.1665   0.7251   0.7252   1.1511   1.1512
     1.2378   1.2379   1.6765   1.6766   2.0353   2.0355   2.0805   2.0805
     2.1202   2.1202   2.2277   2.2278   2.5766   2.5766   2.5872   2.5873
     2.6599   2.6600   2.7323   2.7324   2.8953   2.8954   3.5403   3.5404
     8.0099   8.0100   8.5666   8.5668   8.6539   8.6542   8.6733   8.6735
     9.8501   9.8502   9.9599   9.9599  10.6813  10.6814  11.5843  11.5845
    12.4033  12.4035  13.8660  13.8661  15.1386

          k =-0.5000 0.0000 0.4807 ( 11858 PWs)   bands (ev):

   -71.3721 -71.3720 -71.3446 -71.3445 -35.4154 -35.4153 -35.3943 -35.3941
   -35.3757 -35.3756 -35.3696 -35.3695 -35.3628 -35.3627 -35.3554 -35.3553
   -11.3084 -11.3083 -10.6490 -10.6488 -10.4672 -10.4670 -10.1918 -10.1918
   -10.1810 -10.1809  -9.8409  -9.8408  -1.9989  -1.9988  -0.5260  -0.5259
    -0.3817  -0.3815  -0.3030  -0.3030  -0.0595  -0.0594   0.1920   0.1920
     0.6190   0.6191   0.9532   0.9532   1.0496   1.0497   1.3237   1.3238
     1.9916   1.9917   2.2239   2.2240   2.4570   2.4571   2.6368   2.6369
     3.2691   3.2692   3.3117   3.3118   3.3945   3.3946   3.5722   3.5723
     8.2791   8.2792   8.5833   8.5835   9.1152   9.1154   9.1388   9.1390
     9.8351   9.8351   9.8822   9.8823  11.4691  11.4693  13.6384  13.6386
    13.6863  13.6865  14.5711  14.5712  15.2580

          k =-0.5000 0.0000-0.9614 ( 11920 PWs)   bands (ev):

   -71.3832 -71.3831 -71.3555 -71.3554 -35.4123 -35.4122 -35.3902 -35.3901
   -35.3682 -35.3681 -35.3633 -35.3632 -35.3599 -35.3598 -35.3522 -35.3521
   -11.1931 -11.1930 -10.5211 -10.5209 -10.4351 -10.4349  -9.8579  -9.8578
    -9.7351  -9.7350  -9.7328  -9.7327  -1.9956  -1.9955  -1.4382  -1.4381
    -1.4276  -1.4275  -0.3906  -0.3904  -0.2942  -0.2940  -0.1835  -0.1834
     0.1761   0.1762   0.4125   0.4126   0.4133   0.4134   1.4583   1.4584
     1.6698   1.6699   2.2355   2.2355   2.2494   2.2495   2.5167   2.5167
     3.5274   3.5275   3.6130   3.6130   3.6243   3.6244   3.9876   3.9878
     8.5714   8.5716   9.1781   9.1782   9.6818   9.6820   9.6877   9.6879
     9.8935   9.8937  10.0445  10.0446  11.4812  11.4814  14.6377  14.6380
    14.6983  14.6986  15.5857  15.5862  16.0024

          k =-0.5000 0.2445 0.0000 ( 11838 PWs)   bands (ev):

   -71.3573 -71.3572 -71.3372 -71.3371 -35.4137 -35.4136 -35.3993 -35.3992
   -35.3830 -35.3829 -35.3802 -35.3801 -35.3645 -35.3644 -35.3596 -35.3595
   -11.3745 -11.3745 -10.9905 -10.9905 -10.5326 -10.5325 -10.3832 -10.3830
   -10.3690 -10.3689 -10.0361 -10.0360  -1.5448  -1.5447  -0.4585  -0.4584
    -0.3876  -0.3874   0.3201   0.3202   0.6389   0.6389   0.9499   0.9500
     1.1144   1.1145   1.5266   1.5266   1.7097   1.7098   1.9263   1.9264
     2.2008   2.2009   2.3758   2.3758   2.5222   2.5222   2.5582   2.5583
     2.7194   2.7195   2.7284   2.7285   2.9834   2.9835   3.4831   3.4832
     8.2803   8.2804   8.6572   8.6574   8.6618   8.6621   8.7311   8.7313
     9.6273   9.6274   9.6656   9.6657  11.0049  11.0051  11.5402  11.5403
    12.8303  12.8305  14.0534  14.0535  14.8223

          k =-0.5000 0.2445 0.4807 ( 11856 PWs)   bands (ev):

   -71.3681 -71.3679 -71.3487 -71.3486 -35.4121 -35.4119 -35.3970 -35.3969
   -35.3753 -35.3752 -35.3708 -35.3707 -35.3618 -35.3617 -35.3566 -35.3564
   -11.1798 -11.1797 -10.6937 -10.6936 -10.4421 -10.4420 -10.2008 -10.2007
   -10.1822 -10.1821 -10.0080 -10.0079  -1.5148  -1.5147  -0.5080  -0.5079
[...]
     8.4466   8.4467   8.6170   8.6171   9.0058   9.0058   9.0313   9.0313
     9.7929   9.7931   9.8600   9.8601  12.4027  12.4028  13.3952  13.3954
    13.4836  13.4837  14.7280  14.7283  15.1114

          k = 0.2500-0.4891-0.9614 ( 11868 PWs)   bands (ev):

   -71.3805 -71.3803 -71.3583 -71.3581 -35.4043 -35.4041 -35.3973 -35.3971
   -35.3693 -35.3691 -35.3643 -35.3641 -35.3625 -35.3624 -35.3492 -35.3490
   -11.1140 -11.1139 -10.5437 -10.5436 -10.4284 -10.4283  -9.9412  -9.9411
    -9.7613  -9.7613  -9.7314  -9.7313  -1.7098  -1.7096  -1.4853  -1.4852
    -1.4475  -1.4474  -0.2686  -0.2685  -0.1828  -0.1828  -0.1428  -0.1427
     0.3095   0.3095   0.4506   0.4506   0.4972   0.4972   1.0440   1.0440
     1.1232   1.1232   1.6386   1.6387   2.8628   2.8629   2.9346   2.9347
     3.4078   3.4079   3.4846   3.4846   3.5040   3.5040   4.0025   4.0026
     8.5552   8.5554   9.3204   9.3205   9.5394   9.5395   9.5770   9.5770
     9.8225   9.8226  10.1578  10.1580  12.6032  12.6034  14.0291  14.0293
    14.2259  14.2261  15.7333  15.7334  16.0877

          k =-0.5000 0.0000 0.0000 ( 11846 PWs)   bands (ev):

   -71.3614 -71.3613 -71.3328 -71.3326 -35.4176 -35.4175 -35.3976 -35.3975
   -35.3824 -35.3823 -35.3792 -35.3791 -35.3653 -35.3652 -35.3585 -35.3584
   -11.4814 -11.4813 -10.9464 -10.9463 -10.5794 -10.5793 -10.3865 -10.3864
   -10.3652 -10.3651  -9.8584  -9.8583  -2.0280  -2.0279  -0.4656  -0.4654
    -0.3718  -0.3716   0.1664   0.1665   0.7251   0.7252   1.1511   1.1512
     1.2379   1.2380   1.6765   1.6767   2.0355   2.0355   2.0805   2.0806
     2.1202   2.1202   2.2278   2.2278   2.5766   2.5767   2.5872   2.5873
     2.6600   2.6601   2.7324   2.7325   2.8954   2.8954   3.5404   3.5405
     8.0097   8.0098   8.5666   8.5667   8.6540   8.6541   8.6733   8.6734
     9.8501   9.8502   9.9597   9.9598  10.6813  10.6814  11.5843  11.5845
    12.4032  12.4034  13.8660  13.8661  15.1384

          k =-0.5000 0.0000 0.4807 ( 11858 PWs)   bands (ev):

   -71.3721 -71.3720 -71.3446 -71.3445 -35.4154 -35.4153 -35.3943 -35.3942
   -35.3758 -35.3757 -35.3696 -35.3695 -35.3628 -35.3627 -35.3554 -35.3553
   -11.3084 -11.3083 -10.6490 -10.6488 -10.4671 -10.4670 -10.1918 -10.1917
   -10.1810 -10.1809  -9.8409  -9.8408  -1.9989  -1.9987  -0.5260  -0.5259
    -0.3816  -0.3815  -0.3030  -0.3029  -0.0594  -0.0594   0.1920   0.1921
     0.6190   0.6191   0.9532   0.9532   1.0496   1.0497   1.3237   1.3238
     1.9916   1.9917   2.2240   2.2240   2.4571   2.4572   2.6369   2.6370
     3.2692   3.2693   3.3117   3.3118   3.3946   3.3947   3.5723   3.5724
     8.2789   8.2790   8.5833   8.5834   9.1153   9.1153   9.1389   9.1389
     9.8349   9.8350   9.8822   9.8822  11.4691  11.4692  13.6384  13.6386
    13.6863  13.6865  14.5711  14.5711  15.2581

          k =-0.5000 0.0000-0.9614 ( 11920 PWs)   bands (ev):

   -71.3832 -71.3831 -71.3555 -71.3554 -35.4123 -35.4122 -35.3902 -35.3901
   -35.3683 -35.3682 -35.3634 -35.3633 -35.3599 -35.3598 -35.3522 -35.3521
   -11.1931 -11.1930 -10.5211 -10.5209 -10.4350 -10.4349  -9.8579  -9.8577
    -9.7351  -9.7350  -9.7328  -9.7327  -1.9956  -1.9955  -1.4382  -1.4381
    -1.4276  -1.4275  -0.3906  -0.3904  -0.2942  -0.2940  -0.1835  -0.1834
     0.1761   0.1762   0.4125   0.4126   0.4133   0.4134   1.4583   1.4585
     1.6699   1.6700   2.2355   2.2355   2.2496   2.2496   2.5167   2.5168
     3.5274   3.5275   3.6129   3.6131   3.6243   3.6244   3.9878   3.9879
     8.5714   8.5715   9.1779   9.1781   9.6819   9.6819   9.6878   9.6879
     9.8935   9.8936  10.0444  10.0445  11.4812  11.4813  14.6377  14.6380
    14.6983  14.6986  15.5856  15.5862  16.0024

          k =-0.5000 0.2445 0.0000 ( 11838 PWs)   bands (ev):

   -71.3573 -71.3572 -71.3372 -71.3371 -35.4138 -35.4137 -35.3993 -35.3992
   -35.3831 -35.3830 -35.3802 -35.3801 -35.3645 -35.3644 -35.3596 -35.3595
   -11.3745 -11.3744 -10.9905 -10.9905 -10.5326 -10.5325 -10.3832 -10.3830
   -10.3690 -10.3689 -10.0361 -10.0360  -1.5448  -1.5446  -0.4585  -0.4584
    -0.3876  -0.3874   0.3201   0.3202   0.6389   0.6390   0.9499   0.9500
     1.1144   1.1145   1.5266   1.5267   1.7097   1.7098   1.9264   1.9264
     2.2009   2.2010   2.3757   2.3758   2.5222   2.5223   2.5583   2.5584
     2.7194   2.7195   2.7284   2.7285   2.9835   2.9835   3.4831   3.4832
     8.2801   8.2802   8.6572   8.6573   8.6619   8.6620   8.7311   8.7312
     9.6273   9.6274   9.6654   9.6656  11.0049  11.0050  11.5402  11.5403
    12.8303  12.8305  14.0534  14.0535  14.8221

          k =-0.5000 0.2445 0.4807 ( 11856 PWs)   bands (ev):

   -71.3681 -71.3680 -71.3487 -71.3486 -35.4121 -35.4120 -35.3971 -35.3969
   -35.3753 -35.3752 -35.3708 -35.3707 -35.3618 -35.3617 -35.3566 -35.3565
   -11.1798 -11.1797 -10.6937 -10.6936 -10.4421 -10.4420 -10.2008 -10.2007
   -10.1822 -10.1820 -10.0080 -10.0079  -1.5148  -1.5147  -0.5080  -0.5079
    -0.3984  -0.3983  -0.2732  -0.2732  -0.0984  -0.0983   0.3417   0.3417
     0.6460   0.6461   0.8777   0.8778   0.9837   0.9837   1.0811   1.0811
     1.5164   1.5165   1.8252   1.8254   2.7886   2.7887   2.8611   2.8612
     3.2506   3.2507   3.3000   3.3001   3.3811   3.3811   3.5241   3.5242
     8.4813   8.4814   8.7263   8.7264   9.1122   9.1123   9.1447   9.1447
     9.5816   9.5817   9.6599   9.6600  12.1804  12.1805  13.6316  13.6317
    13.7087  13.7090  14.7325  14.7326  14.9093

          k =-0.5000 0.2445-0.9614 ( 11884 PWs)   bands (ev):

   -71.3790 -71.3789 -71.3595 -71.3594 -35.4089 -35.4088 -35.3933 -35.3932
   -35.3679 -35.3677 -35.3643 -35.3642 -35.3589 -35.3588 -35.3534 -35.3533
   -11.0552 -11.0551 -10.5534 -10.5532 -10.4168 -10.4167 -10.0323 -10.0322
    -9.7512  -9.7511  -9.7371  -9.7370  -1.6052  -1.6051  -1.4408  -1.4407
    -1.3232  -1.3231  -0.3848  -0.3846  -0.3106  -0.3104  -0.0379  -0.0379
     0.2931   0.2932   0.4011   0.4012   0.4575   0.4576   0.9996   0.9997
     1.1036   1.1037   1.6555   1.6555   2.8219   2.8220   2.8325   2.8327
     3.4660   3.4661   3.6021   3.6022   3.6248   3.6249   3.8794   3.8795
     8.7221   8.7222   9.2734   9.2735   9.6213   9.6214   9.6899   9.6899
     9.7237   9.7238   9.8941   9.8942  12.2521  12.2522  14.6124  14.6126
    14.7025  14.7027  15.1865  15.1866  16.0329

          k =-0.5000-0.4891 0.0000 ( 11788 PWs)   bands (ev):

   -71.3475 -71.3475 -71.3474 -71.3473 -35.4057 -35.4056 -35.4056 -35.4055
   -35.3824 -35.3823 -35.3823 -35.3821 -35.3622 -35.3622 -35.3621 -35.3620
   -11.1470 -11.1470 -11.1469 -11.1469 -10.3836 -10.3835 -10.3835 -10.3834
   -10.3453 -10.3452 -10.3452 -10.3451  -0.5121  -0.5120  -0.5120  -0.5119
    -0.2890  -0.2890  -0.2889  -0.2889   0.7603   0.7603   0.7604   0.7604
     1.0117   1.0117   1.0118   1.0118   1.7774   1.7775   1.7775   1.7776
     2.3442   2.3443   2.3443   2.3444   2.4627   2.4627   2.4627   2.4628
     2.7622   2.7623   2.7623   2.7623   3.2852   3.2853   3.2853   3.2854
     8.6503   8.6504   8.6504   8.6505   8.9589   8.9590   8.9591   8.9591
     9.1520   9.1521   9.1521   9.1522  11.3802  11.3803  11.3803  11.3805
    13.9592  13.9593  13.9594  13.9595  14.6054

          k =-0.5000-0.4891 0.4807 ( 11868 PWs)   bands (ev):

   -71.3585 -71.3584 -71.3584 -71.3582 -35.4044 -35.4043 -35.4043 -35.4041
   -35.3735 -35.3734 -35.3734 -35.3732 -35.3593 -35.3593 -35.3592 -35.3591
   -10.8876 -10.8876 -10.8875 -10.8875 -10.3367 -10.3366 -10.3366 -10.3365
   -10.1618 -10.1618 -10.1618 -10.1617  -0.5451  -0.5450  -0.5450  -0.5449
    -0.3017  -0.3017  -0.3016  -0.3016  -0.1119  -0.1118  -0.1118  -0.1117
     0.7538   0.7538   0.7539   0.7539   0.9350   0.9350   0.9351   0.9351
     1.2783   1.2784   1.2784   1.2785   3.1179   3.1179   3.1180   3.1180
     3.1964   3.1965   3.1965   3.1966   3.4086   3.4087   3.4087   3.4088
     8.9585   8.9586   8.9587   8.9587   9.0984   9.0985   9.0985   9.0986
     9.2305   9.2306   9.2306   9.2307  13.4120  13.4121  13.4122  13.4123
    13.9920  13.9921  13.9921  13.9924  15.1826

          k =-0.5000-0.4891-0.9614 ( 11864 PWs)   bands (ev):

   -71.3693 -71.3692 -71.3692 -71.3690 -35.4010 -35.4009 -35.4009 -35.4007
   -35.3664 -35.3663 -35.3663 -35.3661 -35.3563 -35.3563 -35.3562 -35.3561
   -10.7365 -10.7364 -10.7364 -10.7363 -10.3238 -10.3238 -10.3237 -10.3237
    -9.7467  -9.7466  -9.7466  -9.7465  -1.4709  -1.4708  -1.4708  -1.4707
    -0.4253  -0.4251  -0.4251  -0.4250  -0.1697  -0.1696  -0.1696  -0.1695
     0.3774   0.3775   0.3775   0.3776   0.4875   0.4876   0.4876   0.4877
     0.8382   0.8382   0.8383   0.8383   3.2392   3.2392   3.2393   3.2394
     3.4377   3.4377   3.4377   3.4378   3.6532   3.6532   3.6533   3.6534
     9.1376   9.1377   9.1377   9.1378   9.5559   9.5561   9.5561   9.5561
     9.7023   9.7024   9.7025   9.7026  13.8065  13.8066  13.8067  13.8069
    14.7246  14.7247  14.7248  14.7250  16.0953

          k = 0.0000 0.2445-0.4807 ( 11880 PWs)   bands (ev):

   -71.3838 -71.3646 -71.3527 -71.3324 -35.4167 -35.4071 -35.4008 -35.3928
   -35.3786 -35.3750 -35.3735 -35.3696 -35.3675 -35.3658 -35.3514 -35.3465
   -11.5285 -11.2792 -11.0186 -10.7318 -10.3436 -10.2757 -10.2191 -10.2080
   -10.0288  -9.9912  -9.7187  -9.6913  -2.3009  -2.2845  -1.5366  -1.4602
    -0.3749  -0.3462  -0.3389  -0.0930  -0.0557   0.1885   0.2090   0.7056
     0.7458   0.8433   0.9849   1.1887   1.4324   1.4730   1.7156   1.7813
     1.8573   2.1792   2.2880   2.3735   2.4843   2.4925   2.5258   2.7491
     2.8769   2.8896   2.9125   3.3579   3.3795   3.4974   3.5163   3.9338
     7.5854   8.2630   8.3018   8.4854   8.5204   9.1046   9.5520   9.5940
     9.9148  10.1365  10.1876  10.3919  11.1708  11.7357  12.3074  12.4806
    13.8968  14.0427  14.2052  14.9357  15.4511

          k = 0.2500 0.0000-0.4807 ( 11853 PWs)   bands (ev):

   -71.3832 -71.3612 -71.3560 -71.3329 -35.4190 -35.4118 -35.3969 -35.3914
   -35.3782 -35.3743 -35.3707 -35.3705 -35.3661 -35.3628 -35.3554 -35.3483
   -11.5035 -11.1954 -11.0809 -10.7314 -10.3307 -10.2438 -10.2285 -10.2186
    -9.9537  -9.9237  -9.8554  -9.8254  -2.0068  -1.9897  -1.7494  -1.6994
    -0.4178  -0.3856  -0.3270  -0.0874  -0.0775   0.3583   0.3702   0.7453
     0.7554   0.8599   0.9429   1.1921   1.3244   1.3288   1.6533   1.6898
     1.8192   2.0631   2.1257   2.2182   2.5583   2.5882   2.6434   2.8003
     2.8366   2.9569   2.9936   3.3749   3.4148   3.4729   3.4822   3.9601
     7.6620   8.2876   8.3043   8.5003   8.5292   9.4683   9.5324   9.8143
     9.8198   9.8337   9.8606  10.2822  11.1148  11.5849  12.5229  12.6170
    13.9139  14.0641  14.4956  14.6541  15.4998

          k = 0.2500-0.2445 0.0000 ( 11848 PWs)   bands (ev):

   -71.3687 -71.3486 -71.3460 -71.3250 -35.4171 -35.4100 -35.4023 -35.3959
   -35.3864 -35.3839 -35.3795 -35.3765 -35.3726 -35.3672 -35.3568 -35.3525
   -11.5818 -11.2790 -11.2400 -10.8324 -10.6870 -10.5565 -10.5091 -10.5063
   -10.0544 -10.0392  -9.9667  -9.9370  -1.7608  -1.7475  -1.5612  -1.4902
    -0.2135   0.5584   0.5851   0.8220   0.8685   0.9319   0.9746   1.0692
     1.1127   1.2745   1.3308   1.4445   1.6471   1.8997   2.0503   2.0918
     2.1192   2.2021   2.2329   2.5184   2.5196   2.5516   2.6059   2.6449
     2.6804   2.7587   2.8084   2.9031   2.9382   2.9994   3.0619   3.8239
     7.7407   7.7620   7.9340   8.2630   8.3058   9.2253   9.4986   9.5634
     9.6102   9.6387   9.6842  10.1117  10.8212  11.0416  11.0697  11.7631
    11.7708  13.3288  13.5783  13.6263  15.0135

          k = 0.2500-0.2445-0.4807 ( 11876 PWs)   bands (ev):

   -71.3791 -71.3599 -71.3572 -71.3373 -35.4154 -35.4085 -35.3998 -35.3941
   -35.3779 -35.3744 -35.3711 -35.3697 -35.3672 -35.3639 -35.3545 -35.3495
   -11.4094 -11.1133 -11.0508 -10.6745 -10.3904 -10.2633 -10.2258 -10.2108
   -10.0235 -10.0016  -9.9472  -9.9187  -1.7447  -1.7344  -1.5297  -1.4568
    -0.3759  -0.3442  -0.1817  -0.1321  -0.1082   0.3580   0.3724   0.6731
     0.7505   0.8830   0.9220   0.9791   1.0534   1.2544   1.2559   1.6200
     1.6410   1.7886   1.8299   2.1218   2.7077   2.7860   2.8195   2.8530
     2.8944   2.9606   3.0381   3.3439   3.3837   3.4661   3.4810   3.8304
     7.9147   8.4551   8.4803   8.5400   8.5508   9.2411   9.5323   9.5840
     9.6080   9.8239   9.8379  10.1397  11.7350  12.2564  12.5230  12.7004
    13.9288  14.1657  14.3058  14.6216  15.5177

          k = 0.2500 0.2445-0.4807 ( 11876 PWs)   bands (ev):

   -71.3791 -71.3599 -71.3572 -71.3373 -35.4154 -35.4085 -35.3998 -35.3941
   -35.3779 -35.3744 -35.3711 -35.3697 -35.3672 -35.3639 -35.3545 -35.3495
   -11.4094 -11.1133 -11.0508 -10.6745 -10.3903 -10.2633 -10.2259 -10.2108
   -10.0235 -10.0016  -9.9471  -9.9187  -1.7447  -1.7344  -1.5297  -1.4568
    -0.3760  -0.3442  -0.1817  -0.1321  -0.1082   0.3580   0.3725   0.6731
     0.7505   0.8830   0.9219   0.9791   1.0534   1.2544   1.2559   1.6200
     1.6410   1.7886   1.8299   2.1217   2.7077   2.7861   2.8195   2.8530
     2.8943   2.9606   3.0380   3.3439   3.3837   3.4661   3.4810   3.8305
     7.9146   8.4551   8.4803   8.5400   8.5509   9.2411   9.5323   9.5840
     9.6081   9.8238   9.8380  10.1397  11.7350  12.2564  12.5230  12.7005
    13.9288  14.1657  14.3058  14.6216  15.5177

          k =-0.2500 0.2445-0.4807 ( 11876 PWs)   bands (ev):

   -71.3791 -71.3599 -71.3572 -71.3373 -35.4154 -35.4085 -35.3998 -35.3941
   -35.3779 -35.3744 -35.3711 -35.3697 -35.3672 -35.3639 -35.3545 -35.3495
   -11.4094 -11.1133 -11.0508 -10.6745 -10.3903 -10.2633 -10.2259 -10.2108
   -10.0235 -10.0016  -9.9471  -9.9187  -1.7447  -1.7344  -1.5297  -1.4568
    -0.3760  -0.3442  -0.1817  -0.1321  -0.1082   0.3580   0.3725   0.6731
     0.7505   0.8830   0.9219   0.9791   1.0534   1.2544   1.2559   1.6200
     1.6410   1.7886   1.8299   2.1218   2.7077   2.7860   2.8195   2.8530
     2.8944   2.9607   3.0381   3.3439   3.3837   3.4661   3.4810   3.8305
     7.9146   8.4552   8.4803   8.5400   8.5509   9.2411   9.5323   9.5840
     9.6081   9.8238   9.8380  10.1397  11.7350  12.2564  12.5230  12.7005
    13.9288  14.1657  14.3058  14.6216  15.5178

          k = 0.2500-0.2445 0.9614 ( 11872 PWs)   bands (ev):

   -71.3899 -71.3711 -71.3684 -71.3480 -35.4123 -35.4052 -35.3966 -35.3894
   -35.3705 -35.3675 -35.3666 -35.3648 -35.3609 -35.3603 -35.3519 -35.3460
   -11.2873 -11.0195 -10.9443 -10.6636 -10.0914 -10.0485  -9.9559  -9.9164
    -9.7657  -9.7520  -9.7360  -9.7217  -1.7202  -1.7191  -1.6195  -1.5506
    -1.4544  -1.4219  -1.3349  -1.2791  -0.1876  -0.1401  -0.1215  -0.0555
    -0.0239   0.7817   0.9177   1.0208   1.0394   1.1114   1.1232   1.1525
     1.1535   1.4103   1.4457   2.1209   2.7244   2.7541   2.8379   2.8635
     2.8892   2.9454   3.0555   3.8236   3.8682   3.8748   3.9969   4.0091
     7.9215   9.1678   9.2624   9.3047   9.3144   9.3803   9.5572   9.8631
     9.9148  10.1407  10.1576  10.1668  11.7009  12.4394  12.8825  13.5758
    15.1233  15.1492  15.6972  15.7133  15.8682

          k = 0.2500 0.4891-0.4807 ( 11888 PWs)   bands (ev):

   -71.3695 -71.3693 -71.3475 -71.3473 -35.4073 -35.4072 -35.4011 -35.4009
   -35.3763 -35.3762 -35.3700 -35.3699 -35.3667 -35.3666 -35.3522 -35.3521
   -11.2261 -11.2260 -10.6896 -10.6896 -10.4690 -10.4690 -10.1875 -10.1875
   -10.1736 -10.1735  -9.9351  -9.9350  -1.7342  -1.7341  -0.4626  -0.4625
    -0.3793  -0.3792  -0.1539  -0.1538  -0.0781  -0.0781   0.2750   0.2750
     0.3805   0.3805   0.9911   0.9912   1.1548   1.1548   1.2492   1.2492
     1.5120   1.5120   1.7660   1.7661   2.8265   2.8266   2.9299   2.9300
     3.1828   3.1829   3.2378   3.2379   3.3540   3.3541   3.5342   3.5342
     8.4466   8.4467   8.6170   8.6171   9.0057   9.0058   9.0312   9.0313
     9.7930   9.7931   9.8600   9.8601  12.4026  12.4028  13.3952  13.3954
    13.4836  13.4837  14.7280  14.7282  15.1113

          k =-0.5000 0.2445-0.4807 ( 11856 PWs)   bands (ev):

   -71.3681 -71.3680 -71.3487 -71.3486 -35.4121 -35.4120 -35.3971 -35.3969
   -35.3753 -35.3752 -35.3708 -35.3707 -35.3618 -35.3617 -35.3566 -35.3565
   -11.1798 -11.1797 -10.6937 -10.6936 -10.4421 -10.4420 -10.2007 -10.2006
   -10.1822 -10.1821 -10.0080 -10.0079  -1.5148  -1.5147  -0.5080  -0.5079
    -0.3984  -0.3983  -0.2732  -0.2732  -0.0984  -0.0983   0.3417   0.3417
     0.6460   0.6461   0.8777   0.8777   0.9837   0.9838   1.0810   1.0811
     1.5164   1.5165   1.8253   1.8254   2.7886   2.7887   2.8611   2.8612
     3.2506   3.2507   3.2999   3.3000   3.3811   3.3812   3.5241   3.5242
     8.4813   8.4814   8.7263   8.7264   9.1122   9.1122   9.1447   9.1448
     9.5816   9.5817   9.6599   9.6599  12.1804  12.1805  13.6316  13.6318
    13.7087  13.7089  14.7325  14.7325  14.9093

     the Fermi energy is     5.3956 ev

!    total energy              =   -1131.74175690 Ry
     estimated scf accuracy    <       0.00000007 Ry
     smearing contrib. (-TS)   =      -0.00000000 Ry
     internal energy E=F+TS    =   -1131.74175690 Ry

     The total energy is F=E-TS. E is the sum of the following terms:
     one-electron contribution =    -490.02871723 Ry
     hartree contribution      =     294.19973761 Ry
     xc contribution           =    -254.19136495 Ry
     ewald contribution        =    -572.94613163 Ry
     Hubbard energy            =       5.19617329 Ry
     one-center paw contrib.   =    -113.97145398 Ry

     total magnetization       =    -0.00 Bohr mag/cell
     absolute magnetization    =     0.00 Bohr mag/cell

     convergence has been achieved in  13 iterations

     Writing all to output data dir ./out/WO3.save/

     init_run     :      6.99s CPU      9.34s WALL (       1 calls)
     electrons    :    169.95s CPU    235.07s WALL (       1 calls)

     Called by init_run:
     wfcinit      :      5.50s CPU      7.49s WALL (       1 calls)
     potinit      :      0.54s CPU      0.67s WALL (       1 calls)
     hinit0       :      0.60s CPU      0.72s WALL (       1 calls)

     Called by electrons:
     c_bands      :    139.91s CPU    190.85s WALL (      13 calls)
     sum_band     :     24.80s CPU     36.06s WALL (      13 calls)
     v_of_rho     :      1.26s CPU      1.56s WALL (      14 calls)
     newd         :      3.90s CPU      5.20s WALL (      14 calls)
     PAW_pot      :      0.11s CPU      1.20s WALL (      14 calls)
     mix_rho      :      0.18s CPU      0.24s WALL (      13 calls)

     Called by c_bands:
     init_us_2    :      3.03s CPU      3.21s WALL (    2016 calls)
     init_us_2:cp :      3.03s CPU      3.20s WALL (    2016 calls)
     cegterg      :    133.31s CPU    183.28s WALL (     936 calls)

     Called by *egterg:
     cdiaghg      :     25.10s CPU     26.49s WALL (    4127 calls)
     h_psi        :     77.56s CPU    122.86s WALL (    4199 calls)
     s_psi        :      7.80s CPU      7.98s WALL (    4271 calls)
     g_psi        :      0.35s CPU      0.38s WALL (    3191 calls)

     Called by h_psi:
     h_psi:calbec :      9.29s CPU     12.39s WALL (    4199 calls)
     vloc_psi     :     54.43s CPU     94.90s WALL (    4199 calls)
     add_vuspsi   :      6.68s CPU      6.89s WALL (    4199 calls)
     vhpsi        :      6.26s CPU      7.54s WALL (    4199 calls)

     General routines
     calbec       :     15.90s CPU     21.35s WALL (   10342 calls)
     fft          :      0.68s CPU      1.04s WALL (     344 calls)
     ffts         :      0.25s CPU      0.26s WALL (      54 calls)
     fftw         :     57.20s CPU    101.88s WALL (  467236 calls)
     interpolate  :      0.28s CPU      0.31s WALL (      28 calls)
     davcio       :      0.00s CPU      0.64s WALL (      72 calls)

     Parallel routines

     Hubbard U routines
     new_ns       :      1.24s CPU      1.55s WALL (      13 calls)
     vhpsi        :      6.26s CPU      7.54s WALL (    4199 calls)

     PWSCF        :   2m57.74s CPU   4m13.90s WALL


   This run was terminated on:  16:55:28  30Nov2023            

=------------------------------------------------------------------------------=
   JOB DONE.
=------------------------------------------------------------------------------=
