
     Program PWSCF v.7.2 starts on 10Dec2023 at 19:43:34 

     This program is part of the open-source Quantum ESPRESSO suite
     for quantum simulation of materials; please cite
         "P. Giannozzi et al., J. Phys.:Condens. Matter 21 395502 (2009);
         "P. Giannozzi et al., J. Phys.:Condens. Matter 29 465901 (2017);
         "P. Giannozzi et al., J. Chem. Phys. 152 154105 (2020);
          URL http://www.quantum-espresso.org", 
     in publications or presentations arising from this work. More details at
     http://www.quantum-espresso.org/quote

     Parallel version (MPI & OpenMP), running on      16 processor cores
     Number of MPI processes:                16
     Threads/MPI process:                     1

     MPI processes distributed on     1 nodes
     510528 MiB available memory on the printing compute node when the environment starts

     Reading input from graphene.bands.pwi

     Current dimensions of program PWSCF are:
     Max number of different atomic species (ntypx) = 10
     Max number of k-points (npk) =  40000
     Max angular momentum in pseudopotentials (lmaxx) =  4

     Atomic positions and unit cell read from directory:
     ../SCF/out/graphene.save/
     Atomic positions from file used, from input discarded

     file C.pbe-n-kjpaw_psl.1.0.0.UPF: wavefunction(s)  2S 2P renormalized

     R & G space division:  proc/nbgrp/npool/nimage =      16
     Subspace diagonalization in iterative solution of the eigenvalue problem:
     a serial algorithm will be used


     Parallelization info
     --------------------
     sticks:   dense  smooth     PW     G-vecs:    dense   smooth      PW
     Min          37      18      5                 5987     2112     359
     Max          38      19      6                 6014     2141     400
     Sum         595     301     91                96043    34107    6065

     Using Slab Decomposition


     Title: 
     graphene                                                                   


     bravais-lattice index     =            4
     lattice parameter (alat)  =       4.6627  a.u.
     unit-cell volume          =     711.6007 (a.u.)^3
     number of atoms/cell      =            2
     number of atomic types    =            1
     number of electrons       =         8.00
     number of Kohn-Sham states=           16
     kinetic-energy cutoff     =      50.0000  Ry
     charge density cutoff     =     400.0000  Ry
     Exchange-correlation= SLA  PW   PBX  PBC
                           (   1   4   3   4   0   0   0)

     celldm(1)=   4.662710  celldm(2)=   0.000000  celldm(3)=   8.105698
     celldm(4)=   0.000000  celldm(5)=   0.000000  celldm(6)=   0.000000

     crystal axes: (cart. coord. in units of alat)
               a(1) = (   1.000000   0.000000   0.000000 )  
               a(2) = (  -0.500000   0.866025   0.000000 )  
               a(3) = (   0.000000   0.000000   8.105698 )  

     reciprocal axes: (cart. coord. in units 2 pi/alat)
               b(1) = (  1.000000  0.577350 -0.000000 )  
               b(2) = (  0.000000  1.154701  0.000000 )  
               b(3) = (  0.000000 -0.000000  0.123370 )  


     PseudoPot. # 1 for C  read from file:
     /home/caique.campos/Tutorial-espresso-2023/Graphene/pseudos/C.pbe-n-kjpaw_psl.1.0.0.UPF
     MD5 check sum: 5d2aebdfa2cae82b50a7e79e9516da0f
     Pseudo is Projector augmented-wave + core cor, Zval =  4.0
     Generated using "atomic" code by A. Dal Corso  v.5.1
     Shape of augmentation charge: PSQ
     Using radial grid of 1073 points,  4 beta functions with: 
                l(1) =   0
                l(2) =   0
                l(3) =   1
                l(4) =   1
     Q(r) pseudized with 0 coefficients 


     atomic species   valence    mass     pseudopotential
        C              4.00    12.01100     C ( 1.00)

     24 Sym. Ops., with inversion, found (18 have fractional translation)


                                    s                        frac. trans.

      isym =  1     identity                                     

 cryst.   s( 1) = (     1          0          0      )
                  (     0          1          0      )
                  (     0          0          1      )

 cart.    s( 1) = (  1.0000000  0.0000000  0.0000000 )
                  (  0.0000000  1.0000000  0.0000000 )
                  (  0.0000000  0.0000000  1.0000000 )


      isym =  2     180 deg rotation - cart. axis [0,0,1]        

 cryst.   s( 2) = (    -1          0          0      )    f =( -0.3333333 )
                  (     0         -1          0      )       (  0.3333333 )
                  (     0          0          1      )       (  0.0000000 )

 cart.    s( 2) = ( -1.0000000  0.0000000  0.0000000 )    f =( -0.5000000 )
                  (  0.0000000 -1.0000000  0.0000000 )       (  0.2886751 )
                  (  0.0000000  0.0000000  1.0000000 )       (  0.0000000 )


      isym =  3     180 deg rotation - cart. axis [0,1,0]        

 cryst.   s( 3) = (    -1          0          0      )    f =(  0.0000000 )
                  (     1          1          0      )       (  0.0000000 )
                  (     0          0         -1      )       ( -0.5000000 )

 cart.    s( 3) = ( -1.0000000 -0.0000000  0.0000000 )    f =(  0.0000000 )
                  (  0.0000000  1.0000000  0.0000000 )       (  0.0000000 )
                  (  0.0000000  0.0000000 -1.0000000 )       ( -4.0528492 )


      isym =  4     180 deg rotation - cart. axis [1,0,0]        

 cryst.   s( 4) = (     1          0          0      )    f =( -0.3333333 )
                  (    -1         -1          0      )       (  0.3333333 )
                  (     0          0         -1      )       ( -0.5000000 )

 cart.    s( 4) = (  1.0000000  0.0000000  0.0000000 )    f =( -0.5000000 )
                  (  0.0000000 -1.0000000  0.0000000 )       (  0.2886751 )
                  (  0.0000000  0.0000000 -1.0000000 )       ( -4.0528492 )


      isym =  5      60 deg rotation - cryst. axis [0,0,1]       

 cryst.   s( 5) = (     1          1          0      )    f =( -0.3333333 )
                  (    -1          0          0      )       (  0.3333333 )
                  (     0          0          1      )       (  0.0000000 )

 cart.    s( 5) = (  0.5000000 -0.8660254  0.0000000 )    f =( -0.5000000 )
                  (  0.8660254  0.5000000  0.0000000 )       (  0.2886751 )
                  (  0.0000000  0.0000000  1.0000000 )       (  0.0000000 )


      isym =  6      60 deg rotation - cryst. axis [0,0,-1]      

 cryst.   s( 6) = (     0         -1          0      )    f =( -0.3333333 )
                  (     1          1          0      )       (  0.3333333 )
                  (     0          0          1      )       (  0.0000000 )

 cart.    s( 6) = (  0.5000000  0.8660254  0.0000000 )    f =( -0.5000000 )
                  ( -0.8660254  0.5000000  0.0000000 )       (  0.2886751 )
                  (  0.0000000  0.0000000  1.0000000 )       (  0.0000000 )


      isym =  7     120 deg rotation - cryst. axis [0,0,1]       

 cryst.   s( 7) = (     0          1          0      )
                  (    -1         -1          0      )
                  (     0          0          1      )

 cart.    s( 7) = ( -0.5000000 -0.8660254  0.0000000 )
                  (  0.8660254 -0.5000000  0.0000000 )
                  (  0.0000000  0.0000000  1.0000000 )


      isym =  8     120 deg rotation - cryst. axis [0,0,-1]      

 cryst.   s( 8) = (    -1         -1          0      )
                  (     1          0          0      )
                  (     0          0          1      )

 cart.    s( 8) = ( -0.5000000  0.8660254  0.0000000 )
                  ( -0.8660254 -0.5000000  0.0000000 )
                  (  0.0000000  0.0000000  1.0000000 )


      isym =  9     180 deg rotation - cryst. axis [1,-1,0]      

 cryst.   s( 9) = (     0         -1          0      )    f =(  0.0000000 )
                  (    -1          0          0      )       (  0.0000000 )
                  (     0          0         -1      )       ( -0.5000000 )

 cart.    s( 9) = (  0.5000000 -0.8660254  0.0000000 )    f =(  0.0000000 )
                  ( -0.8660254 -0.5000000  0.0000000 )       (  0.0000000 )
                  (  0.0000000  0.0000000 -1.0000000 )       ( -4.0528492 )


      isym = 10     180 deg rotation - cryst. axis [2,1,0]       

 cryst.   s(10) = (     1          1          0      )    f =(  0.0000000 )
                  (     0         -1          0      )       (  0.0000000 )
                  (     0          0         -1      )       ( -0.5000000 )

 cart.    s(10) = (  0.5000000  0.8660254  0.0000000 )    f =(  0.0000000 )
                  (  0.8660254 -0.5000000  0.0000000 )       (  0.0000000 )
                  (  0.0000000  0.0000000 -1.0000000 )       ( -4.0528492 )


      isym = 11     180 deg rotation - cryst. axis [0,1,0]       

 cryst.   s(11) = (    -1         -1          0      )    f =( -0.3333333 )
                  (     0          1          0      )       (  0.3333333 )
                  (     0          0         -1      )       ( -0.5000000 )

 cart.    s(11) = ( -0.5000000 -0.8660254  0.0000000 )    f =( -0.5000000 )
                  ( -0.8660254  0.5000000  0.0000000 )       (  0.2886751 )
                  (  0.0000000  0.0000000 -1.0000000 )       ( -4.0528492 )


      isym = 12     180 deg rotation - cryst. axis [1,1,0]       

 cryst.   s(12) = (     0          1          0      )    f =( -0.3333333 )
                  (     1          0          0      )       (  0.3333333 )
                  (     0          0         -1      )       ( -0.5000000 )

 cart.    s(12) = ( -0.5000000  0.8660254  0.0000000 )    f =( -0.5000000 )
                  (  0.8660254  0.5000000  0.0000000 )       (  0.2886751 )
                  (  0.0000000  0.0000000 -1.0000000 )       ( -4.0528492 )


      isym = 13     inversion                                    

 cryst.   s(13) = (    -1          0          0      )    f =( -0.3333333 )
                  (     0         -1          0      )       (  0.3333333 )
                  (     0          0         -1      )       ( -0.5000000 )

 cart.    s(13) = ( -1.0000000  0.0000000  0.0000000 )    f =( -0.5000000 )
                  (  0.0000000 -1.0000000  0.0000000 )       (  0.2886751 )
                  (  0.0000000  0.0000000 -1.0000000 )       ( -4.0528492 )


      isym = 14     inv. 180 deg rotation - cart. axis [0,0,1]   

 cryst.   s(14) = (     1          0          0      )    f =(  0.0000000 )
                  (     0          1          0      )       (  0.0000000 )
                  (     0          0         -1      )       ( -0.5000000 )

 cart.    s(14) = (  1.0000000  0.0000000  0.0000000 )    f =(  0.0000000 )
                  (  0.0000000  1.0000000  0.0000000 )       (  0.0000000 )
                  (  0.0000000  0.0000000 -1.0000000 )       ( -4.0528492 )


      isym = 15     inv. 180 deg rotation - cart. axis [0,1,0]   

 cryst.   s(15) = (     1          0          0      )    f =( -0.3333333 )
                  (    -1         -1          0      )       (  0.3333333 )
                  (     0          0          1      )       (  0.0000000 )

 cart.    s(15) = (  1.0000000  0.0000000  0.0000000 )    f =( -0.5000000 )
                  (  0.0000000 -1.0000000  0.0000000 )       (  0.2886751 )
                  (  0.0000000  0.0000000  1.0000000 )       (  0.0000000 )


      isym = 16     inv. 180 deg rotation - cart. axis [1,0,0]   

 cryst.   s(16) = (    -1          0          0      )
                  (     1          1          0      )
                  (     0          0          1      )

 cart.    s(16) = ( -1.0000000 -0.0000000  0.0000000 )
                  (  0.0000000  1.0000000  0.0000000 )
                  (  0.0000000  0.0000000  1.0000000 )


      isym = 17     inv.  60 deg rotation - cryst. axis [0,0,1]  

 cryst.   s(17) = (    -1         -1          0      )    f =(  0.0000000 )
                  (     1          0          0      )       (  0.0000000 )
                  (     0          0         -1      )       ( -0.5000000 )

 cart.    s(17) = ( -0.5000000  0.8660254  0.0000000 )    f =(  0.0000000 )
                  ( -0.8660254 -0.5000000  0.0000000 )       (  0.0000000 )
                  (  0.0000000  0.0000000 -1.0000000 )       ( -4.0528492 )


      isym = 18     inv.  60 deg rotation - cryst. axis [0,0,-1] 

 cryst.   s(18) = (     0          1          0      )    f =(  0.0000000 )
                  (    -1         -1          0      )       (  0.0000000 )
                  (     0          0         -1      )       ( -0.5000000 )

 cart.    s(18) = ( -0.5000000 -0.8660254  0.0000000 )    f =(  0.0000000 )
                  (  0.8660254 -0.5000000  0.0000000 )       (  0.0000000 )
                  (  0.0000000  0.0000000 -1.0000000 )       ( -4.0528492 )


      isym = 19     inv. 120 deg rotation - cryst. axis [0,0,1]  

 cryst.   s(19) = (     0         -1          0      )    f =( -0.3333333 )
                  (     1          1          0      )       (  0.3333333 )
                  (     0          0         -1      )       ( -0.5000000 )

 cart.    s(19) = (  0.5000000  0.8660254  0.0000000 )    f =( -0.5000000 )
                  ( -0.8660254  0.5000000  0.0000000 )       (  0.2886751 )
                  (  0.0000000  0.0000000 -1.0000000 )       ( -4.0528492 )


      isym = 20     inv. 120 deg rotation - cryst. axis [0,0,-1] 

 cryst.   s(20) = (     1          1          0      )    f =( -0.3333333 )
                  (    -1          0          0      )       (  0.3333333 )
                  (     0          0         -1      )       ( -0.5000000 )

 cart.    s(20) = (  0.5000000 -0.8660254  0.0000000 )    f =( -0.5000000 )
                  (  0.8660254  0.5000000  0.0000000 )       (  0.2886751 )
                  (  0.0000000  0.0000000 -1.0000000 )       ( -4.0528492 )


      isym = 21     inv. 180 deg rotation - cryst. axis [1,-1,0] 

 cryst.   s(21) = (     0          1          0      )    f =( -0.3333333 )
                  (     1          0          0      )       (  0.3333333 )
                  (     0          0          1      )       (  0.0000000 )

 cart.    s(21) = ( -0.5000000  0.8660254  0.0000000 )    f =( -0.5000000 )
                  (  0.8660254  0.5000000  0.0000000 )       (  0.2886751 )
                  (  0.0000000  0.0000000  1.0000000 )       (  0.0000000 )


      isym = 22     inv. 180 deg rotation - cryst. axis [2,1,0]  

 cryst.   s(22) = (    -1         -1          0      )    f =( -0.3333333 )
                  (     0          1          0      )       (  0.3333333 )
                  (     0          0          1      )       (  0.0000000 )

 cart.    s(22) = ( -0.5000000 -0.8660254  0.0000000 )    f =( -0.5000000 )
                  ( -0.8660254  0.5000000  0.0000000 )       (  0.2886751 )
                  (  0.0000000  0.0000000  1.0000000 )       (  0.0000000 )


      isym = 23     inv. 180 deg rotation - cryst. axis [0,1,0]  

 cryst.   s(23) = (     1          1          0      )
                  (     0         -1          0      )
                  (     0          0          1      )

 cart.    s(23) = (  0.5000000  0.8660254  0.0000000 )
                  (  0.8660254 -0.5000000  0.0000000 )
                  (  0.0000000  0.0000000  1.0000000 )


      isym = 24     inv. 180 deg rotation - cryst. axis [1,1,0]  

 cryst.   s(24) = (     0         -1          0      )
                  (    -1          0          0      )
                  (     0          0          1      )

 cart.    s(24) = (  0.5000000 -0.8660254  0.0000000 )
                  ( -0.8660254 -0.5000000  0.0000000 )
                  (  0.0000000  0.0000000  1.0000000 )


     point group D_6h(6/mmm)
     there are 12 classes
     the character table:

       E     2C6   2C3   C2    3C2'  3C2'' i     2S3   2S6   s_h   3s_d  3s_v 
A_1g   1.00  1.00  1.00  1.00  1.00  1.00  1.00  1.00  1.00  1.00  1.00  1.00
A_2g   1.00  1.00  1.00  1.00 -1.00 -1.00  1.00  1.00  1.00  1.00 -1.00 -1.00
B_1g   1.00 -1.00  1.00 -1.00  1.00 -1.00  1.00 -1.00  1.00 -1.00  1.00 -1.00
B_2g   1.00 -1.00  1.00 -1.00 -1.00  1.00  1.00 -1.00  1.00 -1.00 -1.00  1.00
E_1g   2.00  1.00 -1.00 -2.00  0.00  0.00  2.00  1.00 -1.00 -2.00  0.00  0.00
E_2g   2.00 -1.00 -1.00  2.00  0.00  0.00  2.00 -1.00 -1.00  2.00  0.00  0.00
A_1u   1.00  1.00  1.00  1.00  1.00  1.00 -1.00 -1.00 -1.00 -1.00 -1.00 -1.00
A_2u   1.00  1.00  1.00  1.00 -1.00 -1.00 -1.00 -1.00 -1.00 -1.00  1.00  1.00
B_1u   1.00 -1.00  1.00 -1.00  1.00 -1.00 -1.00  1.00 -1.00  1.00 -1.00  1.00
B_2u   1.00 -1.00  1.00 -1.00 -1.00  1.00 -1.00  1.00 -1.00  1.00  1.00 -1.00
E_1u   2.00  1.00 -1.00 -2.00  0.00  0.00 -2.00 -1.00  1.00  2.00  0.00  0.00
E_2u   2.00 -1.00 -1.00  2.00  0.00  0.00 -2.00  1.00  1.00 -2.00  0.00  0.00

     the symmetry operations in each class and the name of the first element:

     E        1
          identity                                               
     2C6      5    6
           60 deg rotation - cryst. axis [0,0,1]                 
     2C3      7    8
          120 deg rotation - cryst. axis [0,0,1]                 
     C2       2
          180 deg rotation - cart. axis [0,0,1]                  
     3C2'     4   12   11
          180 deg rotation - cart. axis [1,0,0]                  
     3C2''    3    9   10
          180 deg rotation - cart. axis [0,1,0]                  
     i       13
          inversion                                              
     2S3     17   18
          inv.  60 deg rotation - cryst. axis [0,0,1]            
     2S6     19   20
          inv. 120 deg rotation - cryst. axis [0,0,1]            
     s_h     14
          inv. 180 deg rotation - cart. axis [0,0,1]             
     3s_d    16   24   23
          inv. 180 deg rotation - cart. axis [1,0,0]             
     3s_v    15   21   22
          inv. 180 deg rotation - cart. axis [0,1,0]             

   Cartesian axes

     site n.     atom                  positions (alat units)
         1           C   tau(   1) = (   0.0000000   0.0000000   2.0264246  )
         2           C   tau(   2) = (  -0.0000000   0.5773503   2.0264246  )

   Crystallographic axes

     site n.     atom                  positions (cryst. coord.)
         1           C   tau(   1) = (  0.0000000  0.0000000  0.2500000  )
         2           C   tau(   2) = (  0.3333333  0.6666667  0.2500000  )

     number of k points=   151  Gaussian smearing, width (Ry)=  0.0001
                       cart. coord. in units 2pi/alat
        k(    1) = (  -0.3333333   0.5773503   0.0000000), wk =   0.0132450
        k(    2) = (  -0.3266667   0.5658033   0.0000000), wk =   0.0132450
        k(    3) = (  -0.3200000   0.5542563   0.0000000), wk =   0.0132450
        k(    4) = (  -0.3133333   0.5427093   0.0000000), wk =   0.0132450
        k(    5) = (  -0.3066667   0.5311622   0.0000000), wk =   0.0132450
        k(    6) = (  -0.3000000   0.5196152   0.0000000), wk =   0.0132450
        k(    7) = (  -0.2933333   0.5080682   0.0000000), wk =   0.0132450
        k(    8) = (  -0.2866667   0.4965212   0.0000000), wk =   0.0132450
        k(    9) = (  -0.2800000   0.4849742   0.0000000), wk =   0.0132450
        k(   10) = (  -0.2733333   0.4734272   0.0000000), wk =   0.0132450
        k(   11) = (  -0.2666667   0.4618802   0.0000000), wk =   0.0132450
        k(   12) = (  -0.2600000   0.4503332   0.0000000), wk =   0.0132450
        k(   13) = (  -0.2533333   0.4387862   0.0000000), wk =   0.0132450
        k(   14) = (  -0.2466667   0.4272392   0.0000000), wk =   0.0132450
        k(   15) = (  -0.2400000   0.4156922   0.0000000), wk =   0.0132450
        k(   16) = (  -0.2333333   0.4041452   0.0000000), wk =   0.0132450
        k(   17) = (  -0.2266667   0.3925982   0.0000000), wk =   0.0132450
        k(   18) = (  -0.2200000   0.3810512   0.0000000), wk =   0.0132450
        k(   19) = (  -0.2133333   0.3695042   0.0000000), wk =   0.0132450
        k(   20) = (  -0.2066667   0.3579572   0.0000000), wk =   0.0132450
        k(   21) = (  -0.2000000   0.3464102   0.0000000), wk =   0.0132450
        k(   22) = (  -0.1933333   0.3348632   0.0000000), wk =   0.0132450
        k(   23) = (  -0.1866667   0.3233162   0.0000000), wk =   0.0132450
        k(   24) = (  -0.1800000   0.3117691   0.0000000), wk =   0.0132450
        k(   25) = (  -0.1733333   0.3002221   0.0000000), wk =   0.0132450
        k(   26) = (  -0.1666667   0.2886751   0.0000000), wk =   0.0132450
        k(   27) = (  -0.1600000   0.2771281   0.0000000), wk =   0.0132450
        k(   28) = (  -0.1533333   0.2655811   0.0000000), wk =   0.0132450
        k(   29) = (  -0.1466667   0.2540341   0.0000000), wk =   0.0132450
        k(   30) = (  -0.1400000   0.2424871   0.0000000), wk =   0.0132450
        k(   31) = (  -0.1333333   0.2309401   0.0000000), wk =   0.0132450
        k(   32) = (  -0.1266667   0.2193931   0.0000000), wk =   0.0132450
        k(   33) = (  -0.1200000   0.2078461   0.0000000), wk =   0.0132450
        k(   34) = (  -0.1133333   0.1962991   0.0000000), wk =   0.0132450
        k(   35) = (  -0.1066667   0.1847521   0.0000000), wk =   0.0132450
        k(   36) = (  -0.1000000   0.1732051   0.0000000), wk =   0.0132450
        k(   37) = (  -0.0933333   0.1616581   0.0000000), wk =   0.0132450
        k(   38) = (  -0.0866667   0.1501111   0.0000000), wk =   0.0132450
        k(   39) = (  -0.0800000   0.1385641   0.0000000), wk =   0.0132450
        k(   40) = (  -0.0733333   0.1270171   0.0000000), wk =   0.0132450
        k(   41) = (  -0.0666667   0.1154701   0.0000000), wk =   0.0132450
        k(   42) = (  -0.0600000   0.1039230   0.0000000), wk =   0.0132450
        k(   43) = (  -0.0533333   0.0923760   0.0000000), wk =   0.0132450
        k(   44) = (  -0.0466667   0.0808290   0.0000000), wk =   0.0132450
        k(   45) = (  -0.0400000   0.0692820   0.0000000), wk =   0.0132450
        k(   46) = (  -0.0333333   0.0577350   0.0000000), wk =   0.0132450
        k(   47) = (  -0.0266667   0.0461880   0.0000000), wk =   0.0132450
        k(   48) = (  -0.0200000   0.0346410   0.0000000), wk =   0.0132450
        k(   49) = (  -0.0133333   0.0230940   0.0000000), wk =   0.0132450
        k(   50) = (  -0.0066667   0.0115470   0.0000000), wk =   0.0132450
        k(   51) = (   0.0000000   0.0000000   0.0000000), wk =   0.0132450
        k(   52) = (   0.0000000   0.0115470   0.0000000), wk =   0.0132450
        k(   53) = (   0.0000000   0.0230940   0.0000000), wk =   0.0132450
        k(   54) = (   0.0000000   0.0346410   0.0000000), wk =   0.0132450
        k(   55) = (   0.0000000   0.0461880   0.0000000), wk =   0.0132450
        k(   56) = (   0.0000000   0.0577350   0.0000000), wk =   0.0132450
        k(   57) = (   0.0000000   0.0692820   0.0000000), wk =   0.0132450
        k(   58) = (   0.0000000   0.0808290   0.0000000), wk =   0.0132450
        k(   59) = (   0.0000000   0.0923760   0.0000000), wk =   0.0132450
        k(   60) = (   0.0000000   0.1039230   0.0000000), wk =   0.0132450
        k(   61) = (   0.0000000   0.1154701   0.0000000), wk =   0.0132450
        k(   62) = (   0.0000000   0.1270171   0.0000000), wk =   0.0132450
        k(   63) = (   0.0000000   0.1385641   0.0000000), wk =   0.0132450
        k(   64) = (   0.0000000   0.1501111   0.0000000), wk =   0.0132450
        k(   65) = (   0.0000000   0.1616581   0.0000000), wk =   0.0132450
        k(   66) = (   0.0000000   0.1732051   0.0000000), wk =   0.0132450
        k(   67) = (   0.0000000   0.1847521   0.0000000), wk =   0.0132450
        k(   68) = (   0.0000000   0.1962991   0.0000000), wk =   0.0132450
        k(   69) = (   0.0000000   0.2078461   0.0000000), wk =   0.0132450
        k(   70) = (   0.0000000   0.2193931   0.0000000), wk =   0.0132450
        k(   71) = (   0.0000000   0.2309401   0.0000000), wk =   0.0132450
        k(   72) = (   0.0000000   0.2424871   0.0000000), wk =   0.0132450
        k(   73) = (   0.0000000   0.2540341   0.0000000), wk =   0.0132450
        k(   74) = (   0.0000000   0.2655811   0.0000000), wk =   0.0132450
        k(   75) = (   0.0000000   0.2771281   0.0000000), wk =   0.0132450
        k(   76) = (   0.0000000   0.2886751   0.0000000), wk =   0.0132450
        k(   77) = (   0.0000000   0.3002221   0.0000000), wk =   0.0132450
        k(   78) = (   0.0000000   0.3117691   0.0000000), wk =   0.0132450
        k(   79) = (   0.0000000   0.3233162   0.0000000), wk =   0.0132450
        k(   80) = (   0.0000000   0.3348632   0.0000000), wk =   0.0132450
        k(   81) = (   0.0000000   0.3464102   0.0000000), wk =   0.0132450
        k(   82) = (   0.0000000   0.3579572   0.0000000), wk =   0.0132450
        k(   83) = (   0.0000000   0.3695042   0.0000000), wk =   0.0132450
        k(   84) = (   0.0000000   0.3810512   0.0000000), wk =   0.0132450
        k(   85) = (   0.0000000   0.3925982   0.0000000), wk =   0.0132450
        k(   86) = (   0.0000000   0.4041452   0.0000000), wk =   0.0132450
        k(   87) = (   0.0000000   0.4156922   0.0000000), wk =   0.0132450
        k(   88) = (   0.0000000   0.4272392   0.0000000), wk =   0.0132450
        k(   89) = (   0.0000000   0.4387862   0.0000000), wk =   0.0132450
        k(   90) = (   0.0000000   0.4503332   0.0000000), wk =   0.0132450
        k(   91) = (   0.0000000   0.4618802   0.0000000), wk =   0.0132450
        k(   92) = (   0.0000000   0.4734272   0.0000000), wk =   0.0132450
        k(   93) = (   0.0000000   0.4849742   0.0000000), wk =   0.0132450
        k(   94) = (   0.0000000   0.4965212   0.0000000), wk =   0.0132450
        k(   95) = (   0.0000000   0.5080682   0.0000000), wk =   0.0132450
        k(   96) = (   0.0000000   0.5196152   0.0000000), wk =   0.0132450
        k(   97) = (   0.0000000   0.5311622   0.0000000), wk =   0.0132450
        k(   98) = (   0.0000000   0.5427093   0.0000000), wk =   0.0132450
        k(   99) = (   0.0000000   0.5542563   0.0000000), wk =   0.0132450
        k(  100) = (   0.0000000   0.5658033   0.0000000), wk =   0.0132450
        k(  101) = (   0.0000000   0.5773503   0.0000000), wk =   0.0132450
        k(  102) = (  -0.0066667   0.5773503   0.0000000), wk =   0.0132450
        k(  103) = (  -0.0133333   0.5773503   0.0000000), wk =   0.0132450
        k(  104) = (  -0.0200000   0.5773503   0.0000000), wk =   0.0132450
        k(  105) = (  -0.0266667   0.5773503   0.0000000), wk =   0.0132450
        k(  106) = (  -0.0333333   0.5773503   0.0000000), wk =   0.0132450
        k(  107) = (  -0.0400000   0.5773503   0.0000000), wk =   0.0132450
        k(  108) = (  -0.0466667   0.5773503   0.0000000), wk =   0.0132450
        k(  109) = (  -0.0533333   0.5773503   0.0000000), wk =   0.0132450
        k(  110) = (  -0.0600000   0.5773503   0.0000000), wk =   0.0132450
        k(  111) = (  -0.0666667   0.5773503   0.0000000), wk =   0.0132450
        k(  112) = (  -0.0733333   0.5773503   0.0000000), wk =   0.0132450
        k(  113) = (  -0.0800000   0.5773503   0.0000000), wk =   0.0132450
        k(  114) = (  -0.0866667   0.5773503   0.0000000), wk =   0.0132450
        k(  115) = (  -0.0933333   0.5773503   0.0000000), wk =   0.0132450
        k(  116) = (  -0.1000000   0.5773503   0.0000000), wk =   0.0132450
        k(  117) = (  -0.1066667   0.5773503   0.0000000), wk =   0.0132450
        k(  118) = (  -0.1133333   0.5773503   0.0000000), wk =   0.0132450
        k(  119) = (  -0.1200000   0.5773503   0.0000000), wk =   0.0132450
        k(  120) = (  -0.1266667   0.5773503   0.0000000), wk =   0.0132450
        k(  121) = (  -0.1333333   0.5773503   0.0000000), wk =   0.0132450
        k(  122) = (  -0.1400000   0.5773503   0.0000000), wk =   0.0132450
        k(  123) = (  -0.1466667   0.5773503   0.0000000), wk =   0.0132450
        k(  124) = (  -0.1533333   0.5773503   0.0000000), wk =   0.0132450
        k(  125) = (  -0.1600000   0.5773503   0.0000000), wk =   0.0132450
        k(  126) = (  -0.1666667   0.5773503   0.0000000), wk =   0.0132450
        k(  127) = (  -0.1733333   0.5773503   0.0000000), wk =   0.0132450
        k(  128) = (  -0.1800000   0.5773503   0.0000000), wk =   0.0132450
        k(  129) = (  -0.1866667   0.5773503   0.0000000), wk =   0.0132450
        k(  130) = (  -0.1933333   0.5773503   0.0000000), wk =   0.0132450
        k(  131) = (  -0.2000000   0.5773503   0.0000000), wk =   0.0132450
        k(  132) = (  -0.2066667   0.5773503   0.0000000), wk =   0.0132450
        k(  133) = (  -0.2133333   0.5773503   0.0000000), wk =   0.0132450
        k(  134) = (  -0.2200000   0.5773503   0.0000000), wk =   0.0132450
        k(  135) = (  -0.2266667   0.5773503   0.0000000), wk =   0.0132450
        k(  136) = (  -0.2333333   0.5773503   0.0000000), wk =   0.0132450
        k(  137) = (  -0.2400000   0.5773503   0.0000000), wk =   0.0132450
        k(  138) = (  -0.2466667   0.5773503   0.0000000), wk =   0.0132450
        k(  139) = (  -0.2533333   0.5773503   0.0000000), wk =   0.0132450
        k(  140) = (  -0.2600000   0.5773503   0.0000000), wk =   0.0132450
        k(  141) = (  -0.2666667   0.5773503   0.0000000), wk =   0.0132450
        k(  142) = (  -0.2733333   0.5773503   0.0000000), wk =   0.0132450
        k(  143) = (  -0.2800000   0.5773503   0.0000000), wk =   0.0132450
        k(  144) = (  -0.2866667   0.5773503   0.0000000), wk =   0.0132450
        k(  145) = (  -0.2933333   0.5773503   0.0000000), wk =   0.0132450
        k(  146) = (  -0.3000000   0.5773503   0.0000000), wk =   0.0132450
        k(  147) = (  -0.3066667   0.5773503   0.0000000), wk =   0.0132450
        k(  148) = (  -0.3133333   0.5773503   0.0000000), wk =   0.0132450
        k(  149) = (  -0.3200000   0.5773503   0.0000000), wk =   0.0132450
        k(  150) = (  -0.3266667   0.5773503   0.0000000), wk =   0.0132450
        k(  151) = (  -0.3333333   0.5773503   0.0000000), wk =   0.0132450

                       cryst. coord.
        k(    1) = (  -0.3333333   0.6666667   0.0000000), wk =   0.0132450
        k(    2) = (  -0.3266667   0.6533333   0.0000000), wk =   0.0132450
        k(    3) = (  -0.3200000   0.6400000   0.0000000), wk =   0.0132450
        k(    4) = (  -0.3133333   0.6266667   0.0000000), wk =   0.0132450
        k(    5) = (  -0.3066667   0.6133333   0.0000000), wk =   0.0132450
        k(    6) = (  -0.3000000   0.6000000   0.0000000), wk =   0.0132450
        k(    7) = (  -0.2933333   0.5866667   0.0000000), wk =   0.0132450
        k(    8) = (  -0.2866667   0.5733333   0.0000000), wk =   0.0132450
        k(    9) = (  -0.2800000   0.5600000   0.0000000), wk =   0.0132450
        k(   10) = (  -0.2733333   0.5466667   0.0000000), wk =   0.0132450
        k(   11) = (  -0.2666667   0.5333333   0.0000000), wk =   0.0132450
        k(   12) = (  -0.2600000   0.5200000   0.0000000), wk =   0.0132450
        k(   13) = (  -0.2533333   0.5066667   0.0000000), wk =   0.0132450
        k(   14) = (  -0.2466667   0.4933333   0.0000000), wk =   0.0132450
        k(   15) = (  -0.2400000   0.4800000   0.0000000), wk =   0.0132450
        k(   16) = (  -0.2333333   0.4666667   0.0000000), wk =   0.0132450
        k(   17) = (  -0.2266667   0.4533333   0.0000000), wk =   0.0132450
        k(   18) = (  -0.2200000   0.4400000   0.0000000), wk =   0.0132450
        k(   19) = (  -0.2133333   0.4266667   0.0000000), wk =   0.0132450
        k(   20) = (  -0.2066667   0.4133333   0.0000000), wk =   0.0132450
        k(   21) = (  -0.2000000   0.4000000   0.0000000), wk =   0.0132450
        k(   22) = (  -0.1933333   0.3866667   0.0000000), wk =   0.0132450
        k(   23) = (  -0.1866667   0.3733333   0.0000000), wk =   0.0132450
        k(   24) = (  -0.1800000   0.3600000   0.0000000), wk =   0.0132450
        k(   25) = (  -0.1733333   0.3466667   0.0000000), wk =   0.0132450
        k(   26) = (  -0.1666667   0.3333333   0.0000000), wk =   0.0132450
        k(   27) = (  -0.1600000   0.3200000   0.0000000), wk =   0.0132450
        k(   28) = (  -0.1533333   0.3066667   0.0000000), wk =   0.0132450
        k(   29) = (  -0.1466667   0.2933333   0.0000000), wk =   0.0132450
        k(   30) = (  -0.1400000   0.2800000   0.0000000), wk =   0.0132450
        k(   31) = (  -0.1333333   0.2666667   0.0000000), wk =   0.0132450
        k(   32) = (  -0.1266667   0.2533333   0.0000000), wk =   0.0132450
        k(   33) = (  -0.1200000   0.2400000   0.0000000), wk =   0.0132450
        k(   34) = (  -0.1133333   0.2266667   0.0000000), wk =   0.0132450
        k(   35) = (  -0.1066667   0.2133333   0.0000000), wk =   0.0132450
        k(   36) = (  -0.1000000   0.2000000   0.0000000), wk =   0.0132450
        k(   37) = (  -0.0933333   0.1866667   0.0000000), wk =   0.0132450
        k(   38) = (  -0.0866667   0.1733333   0.0000000), wk =   0.0132450
        k(   39) = (  -0.0800000   0.1600000   0.0000000), wk =   0.0132450
        k(   40) = (  -0.0733333   0.1466667   0.0000000), wk =   0.0132450
        k(   41) = (  -0.0666667   0.1333333   0.0000000), wk =   0.0132450
        k(   42) = (  -0.0600000   0.1200000   0.0000000), wk =   0.0132450
        k(   43) = (  -0.0533333   0.1066667   0.0000000), wk =   0.0132450
        k(   44) = (  -0.0466667   0.0933333   0.0000000), wk =   0.0132450
        k(   45) = (  -0.0400000   0.0800000   0.0000000), wk =   0.0132450
        k(   46) = (  -0.0333333   0.0666667   0.0000000), wk =   0.0132450
        k(   47) = (  -0.0266667   0.0533333   0.0000000), wk =   0.0132450
        k(   48) = (  -0.0200000   0.0400000   0.0000000), wk =   0.0132450
        k(   49) = (  -0.0133333   0.0266667   0.0000000), wk =   0.0132450
        k(   50) = (  -0.0066667   0.0133333   0.0000000), wk =   0.0132450
        k(   51) = (   0.0000000   0.0000000   0.0000000), wk =   0.0132450
        k(   52) = (   0.0000000   0.0100000   0.0000000), wk =   0.0132450
        k(   53) = (   0.0000000   0.0200000   0.0000000), wk =   0.0132450
        k(   54) = (   0.0000000   0.0300000   0.0000000), wk =   0.0132450
        k(   55) = (   0.0000000   0.0400000   0.0000000), wk =   0.0132450
        k(   56) = (   0.0000000   0.0500000   0.0000000), wk =   0.0132450
        k(   57) = (   0.0000000   0.0600000   0.0000000), wk =   0.0132450
        k(   58) = (   0.0000000   0.0700000   0.0000000), wk =   0.0132450
        k(   59) = (   0.0000000   0.0800000   0.0000000), wk =   0.0132450
        k(   60) = (   0.0000000   0.0900000   0.0000000), wk =   0.0132450
        k(   61) = (   0.0000000   0.1000000   0.0000000), wk =   0.0132450
        k(   62) = (   0.0000000   0.1100000   0.0000000), wk =   0.0132450
        k(   63) = (   0.0000000   0.1200000   0.0000000), wk =   0.0132450
        k(   64) = (   0.0000000   0.1300000   0.0000000), wk =   0.0132450
        k(   65) = (   0.0000000   0.1400000   0.0000000), wk =   0.0132450
        k(   66) = (   0.0000000   0.1500000   0.0000000), wk =   0.0132450
        k(   67) = (   0.0000000   0.1600000   0.0000000), wk =   0.0132450
        k(   68) = (   0.0000000   0.1700000   0.0000000), wk =   0.0132450
        k(   69) = (   0.0000000   0.1800000   0.0000000), wk =   0.0132450
        k(   70) = (   0.0000000   0.1900000   0.0000000), wk =   0.0132450
        k(   71) = (   0.0000000   0.2000000   0.0000000), wk =   0.0132450
        k(   72) = (   0.0000000   0.2100000   0.0000000), wk =   0.0132450
        k(   73) = (   0.0000000   0.2200000   0.0000000), wk =   0.0132450
        k(   74) = (   0.0000000   0.2300000   0.0000000), wk =   0.0132450
        k(   75) = (   0.0000000   0.2400000   0.0000000), wk =   0.0132450
        k(   76) = (   0.0000000   0.2500000   0.0000000), wk =   0.0132450
        k(   77) = (   0.0000000   0.2600000   0.0000000), wk =   0.0132450
        k(   78) = (   0.0000000   0.2700000   0.0000000), wk =   0.0132450
        k(   79) = (   0.0000000   0.2800000   0.0000000), wk =   0.0132450
        k(   80) = (   0.0000000   0.2900000   0.0000000), wk =   0.0132450
        k(   81) = (   0.0000000   0.3000000   0.0000000), wk =   0.0132450
        k(   82) = (   0.0000000   0.3100000   0.0000000), wk =   0.0132450
        k(   83) = (   0.0000000   0.3200000   0.0000000), wk =   0.0132450
        k(   84) = (   0.0000000   0.3300000   0.0000000), wk =   0.0132450
        k(   85) = (   0.0000000   0.3400000   0.0000000), wk =   0.0132450
        k(   86) = (   0.0000000   0.3500000   0.0000000), wk =   0.0132450
        k(   87) = (   0.0000000   0.3600000   0.0000000), wk =   0.0132450
        k(   88) = (   0.0000000   0.3700000   0.0000000), wk =   0.0132450
        k(   89) = (   0.0000000   0.3800000   0.0000000), wk =   0.0132450
        k(   90) = (   0.0000000   0.3900000   0.0000000), wk =   0.0132450
        k(   91) = (   0.0000000   0.4000000   0.0000000), wk =   0.0132450
        k(   92) = (   0.0000000   0.4100000   0.0000000), wk =   0.0132450
        k(   93) = (   0.0000000   0.4200000   0.0000000), wk =   0.0132450
        k(   94) = (   0.0000000   0.4300000   0.0000000), wk =   0.0132450
        k(   95) = (   0.0000000   0.4400000   0.0000000), wk =   0.0132450
        k(   96) = (   0.0000000   0.4500000   0.0000000), wk =   0.0132450
        k(   97) = (   0.0000000   0.4600000   0.0000000), wk =   0.0132450
        k(   98) = (   0.0000000   0.4700000   0.0000000), wk =   0.0132450
        k(   99) = (   0.0000000   0.4800000   0.0000000), wk =   0.0132450
        k(  100) = (   0.0000000   0.4900000   0.0000000), wk =   0.0132450
        k(  101) = (   0.0000000   0.5000000   0.0000000), wk =   0.0132450
        k(  102) = (  -0.0066667   0.5033333   0.0000000), wk =   0.0132450
        k(  103) = (  -0.0133333   0.5066667   0.0000000), wk =   0.0132450
        k(  104) = (  -0.0200000   0.5100000   0.0000000), wk =   0.0132450
        k(  105) = (  -0.0266667   0.5133333   0.0000000), wk =   0.0132450
        k(  106) = (  -0.0333333   0.5166667   0.0000000), wk =   0.0132450
        k(  107) = (  -0.0400000   0.5200000   0.0000000), wk =   0.0132450
        k(  108) = (  -0.0466667   0.5233333   0.0000000), wk =   0.0132450
        k(  109) = (  -0.0533333   0.5266667   0.0000000), wk =   0.0132450
        k(  110) = (  -0.0600000   0.5300000   0.0000000), wk =   0.0132450
        k(  111) = (  -0.0666667   0.5333333   0.0000000), wk =   0.0132450
        k(  112) = (  -0.0733333   0.5366667   0.0000000), wk =   0.0132450
        k(  113) = (  -0.0800000   0.5400000   0.0000000), wk =   0.0132450
        k(  114) = (  -0.0866667   0.5433333   0.0000000), wk =   0.0132450
        k(  115) = (  -0.0933333   0.5466667   0.0000000), wk =   0.0132450
        k(  116) = (  -0.1000000   0.5500000   0.0000000), wk =   0.0132450
        k(  117) = (  -0.1066667   0.5533333   0.0000000), wk =   0.0132450
        k(  118) = (  -0.1133333   0.5566667   0.0000000), wk =   0.0132450
        k(  119) = (  -0.1200000   0.5600000   0.0000000), wk =   0.0132450
        k(  120) = (  -0.1266667   0.5633333   0.0000000), wk =   0.0132450
        k(  121) = (  -0.1333333   0.5666667   0.0000000), wk =   0.0132450
        k(  122) = (  -0.1400000   0.5700000   0.0000000), wk =   0.0132450
        k(  123) = (  -0.1466667   0.5733333   0.0000000), wk =   0.0132450
        k(  124) = (  -0.1533333   0.5766667   0.0000000), wk =   0.0132450
        k(  125) = (  -0.1600000   0.5800000   0.0000000), wk =   0.0132450
        k(  126) = (  -0.1666667   0.5833333   0.0000000), wk =   0.0132450
        k(  127) = (  -0.1733333   0.5866667   0.0000000), wk =   0.0132450
        k(  128) = (  -0.1800000   0.5900000   0.0000000), wk =   0.0132450
        k(  129) = (  -0.1866667   0.5933333   0.0000000), wk =   0.0132450
        k(  130) = (  -0.1933333   0.5966667   0.0000000), wk =   0.0132450
        k(  131) = (  -0.2000000   0.6000000   0.0000000), wk =   0.0132450
        k(  132) = (  -0.2066667   0.6033333   0.0000000), wk =   0.0132450
        k(  133) = (  -0.2133333   0.6066667   0.0000000), wk =   0.0132450
        k(  134) = (  -0.2200000   0.6100000   0.0000000), wk =   0.0132450
        k(  135) = (  -0.2266667   0.6133333   0.0000000), wk =   0.0132450
        k(  136) = (  -0.2333333   0.6166667   0.0000000), wk =   0.0132450
        k(  137) = (  -0.2400000   0.6200000   0.0000000), wk =   0.0132450
        k(  138) = (  -0.2466667   0.6233333   0.0000000), wk =   0.0132450
        k(  139) = (  -0.2533333   0.6266667   0.0000000), wk =   0.0132450
        k(  140) = (  -0.2600000   0.6300000   0.0000000), wk =   0.0132450
        k(  141) = (  -0.2666667   0.6333333   0.0000000), wk =   0.0132450
        k(  142) = (  -0.2733333   0.6366667   0.0000000), wk =   0.0132450
        k(  143) = (  -0.2800000   0.6400000   0.0000000), wk =   0.0132450
        k(  144) = (  -0.2866667   0.6433333   0.0000000), wk =   0.0132450
        k(  145) = (  -0.2933333   0.6466667   0.0000000), wk =   0.0132450
        k(  146) = (  -0.3000000   0.6500000   0.0000000), wk =   0.0132450
        k(  147) = (  -0.3066667   0.6533333   0.0000000), wk =   0.0132450
        k(  148) = (  -0.3133333   0.6566667   0.0000000), wk =   0.0132450
        k(  149) = (  -0.3200000   0.6600000   0.0000000), wk =   0.0132450
        k(  150) = (  -0.3266667   0.6633333   0.0000000), wk =   0.0132450
        k(  151) = (  -0.3333333   0.6666667   0.0000000), wk =   0.0132450

     Dense  grid:    96043 G-vectors     FFT dimensions: (  30,  30, 250)

     Smooth grid:    34107 G-vectors     FFT dimensions: (  24,  24, 180)

     Dynamical RAM for                 wfc:       0.06 MB

     Dynamical RAM for     wfc (w. buffer):       0.06 MB

     Dynamical RAM for           str. fact:       0.09 MB

     Dynamical RAM for           local pot:       0.00 MB

     Dynamical RAM for          nlocal pot:       0.06 MB

     Dynamical RAM for                qrad:       0.46 MB

     Dynamical RAM for          rho,v,vnew:       0.60 MB

     Dynamical RAM for           G-vectors:       0.36 MB

     Dynamical RAM for          h,s,v(r/c):       0.05 MB

     Dynamical RAM for          <psi|beta>:       0.00 MB

     Dynamical RAM for                 psi:       0.13 MB

     Dynamical RAM for                hpsi:       0.13 MB

     Dynamical RAM for                spsi:       0.13 MB

     Dynamical RAM for      wfcinit/wfcrot:       0.14 MB

     Dynamical RAM for           addusdens:       4.13 MB

     Estimated static dynamical RAM per process >       2.38 MB

     Estimated max dynamical RAM per process >       6.51 MB

     Estimated total dynamical RAM >     104.12 MB

     Check: negative core charge=   -0.000002

     The potential is recalculated from file :
     ../SCF/out/graphene.save/charge-density


     negative rho (up, down):  1.822E-04 0.000E+00
     Starting wfcs are    8 randomized atomic wfcs +    8 random wfcs
     Checking if some PAW data can be deallocated... 

     Band Structure Calculation
     Davidson diagonalization with overlap

     Computing kpt #:     1  of   151
     total cpu time spent up to now is        2.3 secs

     Computing kpt #:     2  of   151
     total cpu time spent up to now is        2.6 secs

     Computing kpt #:     3  of   151
     total cpu time spent up to now is        2.8 secs

     Computing kpt #:     4  of   151
     total cpu time spent up to now is        3.1 secs

     Computing kpt #:     5  of   151
     total cpu time spent up to now is        3.3 secs

     Computing kpt #:     6  of   151
     c_bands:  2 eigenvalues not converged
     total cpu time spent up to now is        3.6 secs

     Computing kpt #:     7  of   151
     total cpu time spent up to now is        3.9 secs

     Computing kpt #:     8  of   151
     total cpu time spent up to now is        4.2 secs

     Computing kpt #:     9  of   151
     total cpu time spent up to now is        4.4 secs

     Computing kpt #:    10  of   151
     total cpu time spent up to now is        4.6 secs

     Computing kpt #:    11  of   151
     total cpu time spent up to now is        4.9 secs

     Computing kpt #:    12  of   151
     total cpu time spent up to now is        5.1 secs

     Computing kpt #:    13  of   151
     total cpu time spent up to now is        5.3 secs

     Computing kpt #:    14  of   151
     total cpu time spent up to now is        5.5 secs

     Computing kpt #:    15  of   151
     total cpu time spent up to now is        5.7 secs

     Computing kpt #:    16  of   151
     total cpu time spent up to now is        5.9 secs

     Computing kpt #:    17  of   151
     total cpu time spent up to now is        6.2 secs

     Computing kpt #:    18  of   151
     total cpu time spent up to now is        6.3 secs

     Computing kpt #:    19  of   151
     total cpu time spent up to now is        6.5 secs

     Computing kpt #:    20  of   151
     total cpu time spent up to now is        6.7 secs

     Computing kpt #:    21  of   151
     total cpu time spent up to now is        6.9 secs

     Computing kpt #:    22  of   151
     total cpu time spent up to now is        7.0 secs

     Computing kpt #:    23  of   151
     total cpu time spent up to now is        7.2 secs

     Computing kpt #:    24  of   151
     total cpu time spent up to now is        7.3 secs

     Computing kpt #:    25  of   151
     total cpu time spent up to now is        7.5 secs

     Computing kpt #:    26  of   151
     total cpu time spent up to now is        7.6 secs

     Computing kpt #:    27  of   151
     total cpu time spent up to now is        7.8 secs

     Computing kpt #:    28  of   151
     total cpu time spent up to now is        7.9 secs

     Computing kpt #:    29  of   151
     total cpu time spent up to now is        8.1 secs

     Computing kpt #:    30  of   151
     total cpu time spent up to now is        8.2 secs

     Computing kpt #:    31  of   151
     total cpu time spent up to now is        8.4 secs

     Computing kpt #:    32  of   151
     total cpu time spent up to now is        8.5 secs

     Computing kpt #:    33  of   151
     total cpu time spent up to now is        8.7 secs

     Computing kpt #:    34  of   151
     total cpu time spent up to now is        8.8 secs

     Computing kpt #:    35  of   151
     total cpu time spent up to now is        9.0 secs

     Computing kpt #:    36  of   151
     total cpu time spent up to now is        9.1 secs

     Computing kpt #:    37  of   151
     total cpu time spent up to now is        9.3 secs

     Computing kpt #:    38  of   151
     total cpu time spent up to now is        9.4 secs

     Computing kpt #:    39  of   151
     total cpu time spent up to now is        9.6 secs

     Computing kpt #:    40  of   151
     total cpu time spent up to now is        9.7 secs

     Computing kpt #:    41  of   151
     total cpu time spent up to now is        9.9 secs

     Computing kpt #:    42  of   151
     total cpu time spent up to now is       10.0 secs

     Computing kpt #:    43  of   151
     total cpu time spent up to now is       10.2 secs

     Computing kpt #:    44  of   151
     total cpu time spent up to now is       10.3 secs

     Computing kpt #:    45  of   151
     total cpu time spent up to now is       10.5 secs

     Computing kpt #:    46  of   151
     total cpu time spent up to now is       10.6 secs

     Computing kpt #:    47  of   151
     total cpu time spent up to now is       10.8 secs

     Computing kpt #:    48  of   151
     total cpu time spent up to now is       10.9 secs

     Computing kpt #:    49  of   151
     total cpu time spent up to now is       11.1 secs

     Computing kpt #:    50  of   151
     total cpu time spent up to now is       11.2 secs

     Computing kpt #:    51  of   151
     total cpu time spent up to now is       11.4 secs

     Computing kpt #:    52  of   151
     total cpu time spent up to now is       11.5 secs

     Computing kpt #:    53  of   151
     total cpu time spent up to now is       11.7 secs

     Computing kpt #:    54  of   151
     total cpu time spent up to now is       11.8 secs

     Computing kpt #:    55  of   151
     total cpu time spent up to now is       12.0 secs

     Computing kpt #:    56  of   151
     total cpu time spent up to now is       12.1 secs

     Computing kpt #:    57  of   151
     total cpu time spent up to now is       12.3 secs

     Computing kpt #:    58  of   151
     total cpu time spent up to now is       12.4 secs

     Computing kpt #:    59  of   151
     total cpu time spent up to now is       12.6 secs

     Computing kpt #:    60  of   151
     total cpu time spent up to now is       12.7 secs

     Computing kpt #:    61  of   151
     total cpu time spent up to now is       12.9 secs

     Computing kpt #:    62  of   151
     total cpu time spent up to now is       13.0 secs

     Computing kpt #:    63  of   151
     total cpu time spent up to now is       13.2 secs

     Computing kpt #:    64  of   151
     total cpu time spent up to now is       13.4 secs

     Computing kpt #:    65  of   151
     total cpu time spent up to now is       13.5 secs

     Computing kpt #:    66  of   151
     total cpu time spent up to now is       13.7 secs

     Computing kpt #:    67  of   151
     total cpu time spent up to now is       13.8 secs

     Computing kpt #:    68  of   151
     total cpu time spent up to now is       14.0 secs

     Computing kpt #:    69  of   151
     total cpu time spent up to now is       14.1 secs

     Computing kpt #:    70  of   151
     total cpu time spent up to now is       14.3 secs

     Computing kpt #:    71  of   151
     total cpu time spent up to now is       14.4 secs

     Computing kpt #:    72  of   151
     total cpu time spent up to now is       14.6 secs

     Computing kpt #:    73  of   151
     total cpu time spent up to now is       14.8 secs

     Computing kpt #:    74  of   151
     total cpu time spent up to now is       15.0 secs

     Computing kpt #:    75  of   151
     total cpu time spent up to now is       15.1 secs

     Computing kpt #:    76  of   151
     total cpu time spent up to now is       15.3 secs

     Computing kpt #:    77  of   151
     total cpu time spent up to now is       15.5 secs

     Computing kpt #:    78  of   151
     total cpu time spent up to now is       15.7 secs

     Computing kpt #:    79  of   151
     total cpu time spent up to now is       15.8 secs

     Computing kpt #:    80  of   151
     total cpu time spent up to now is       16.0 secs

     Computing kpt #:    81  of   151
     total cpu time spent up to now is       16.2 secs

     Computing kpt #:    82  of   151
     total cpu time spent up to now is       16.4 secs

     Computing kpt #:    83  of   151
     total cpu time spent up to now is       16.6 secs

     Computing kpt #:    84  of   151
     total cpu time spent up to now is       16.7 secs

     Computing kpt #:    85  of   151
     total cpu time spent up to now is       16.9 secs

     Computing kpt #:    86  of   151
     total cpu time spent up to now is       17.1 secs

     Computing kpt #:    87  of   151
     total cpu time spent up to now is       17.3 secs

     Computing kpt #:    88  of   151
     total cpu time spent up to now is       17.5 secs

     Computing kpt #:    89  of   151
     total cpu time spent up to now is       17.7 secs

     Computing kpt #:    90  of   151
     total cpu time spent up to now is       17.9 secs

     Computing kpt #:    91  of   151
     total cpu time spent up to now is       18.1 secs

     Computing kpt #:    92  of   151
     total cpu time spent up to now is       18.4 secs

     Computing kpt #:    93  of   151
     total cpu time spent up to now is       18.6 secs

     Computing kpt #:    94  of   151
     total cpu time spent up to now is       18.8 secs

     Computing kpt #:    95  of   151
     total cpu time spent up to now is       19.0 secs

     Computing kpt #:    96  of   151
     total cpu time spent up to now is       19.3 secs

     Computing kpt #:    97  of   151
     total cpu time spent up to now is       19.5 secs

     Computing kpt #:    98  of   151
     total cpu time spent up to now is       19.8 secs

     Computing kpt #:    99  of   151
     total cpu time spent up to now is       20.0 secs

     Computing kpt #:   100  of   151
     total cpu time spent up to now is       20.3 secs

     Computing kpt #:   101  of   151
     total cpu time spent up to now is       20.5 secs

     Computing kpt #:   102  of   151
     total cpu time spent up to now is       20.7 secs

     Computing kpt #:   103  of   151
     total cpu time spent up to now is       20.9 secs

     Computing kpt #:   104  of   151
     total cpu time spent up to now is       21.2 secs

     Computing kpt #:   105  of   151
     total cpu time spent up to now is       21.4 secs

     Computing kpt #:   106  of   151
     total cpu time spent up to now is       21.6 secs

     Computing kpt #:   107  of   151
     total cpu time spent up to now is       21.8 secs

     Computing kpt #:   108  of   151
     total cpu time spent up to now is       22.1 secs

     Computing kpt #:   109  of   151
     total cpu time spent up to now is       22.3 secs

     Computing kpt #:   110  of   151
     total cpu time spent up to now is       22.5 secs

     Computing kpt #:   111  of   151
     total cpu time spent up to now is       22.7 secs

     Computing kpt #:   112  of   151
     total cpu time spent up to now is       22.9 secs

     Computing kpt #:   113  of   151
     total cpu time spent up to now is       23.2 secs

     Computing kpt #:   114  of   151
     total cpu time spent up to now is       23.4 secs

     Computing kpt #:   115  of   151
     total cpu time spent up to now is       23.6 secs

     Computing kpt #:   116  of   151
     total cpu time spent up to now is       23.9 secs

     Computing kpt #:   117  of   151
     total cpu time spent up to now is       24.1 secs

     Computing kpt #:   118  of   151
     total cpu time spent up to now is       24.4 secs

     Computing kpt #:   119  of   151
     total cpu time spent up to now is       24.6 secs

     Computing kpt #:   120  of   151
     total cpu time spent up to now is       24.9 secs

     Computing kpt #:   121  of   151
     total cpu time spent up to now is       25.1 secs

     Computing kpt #:   122  of   151
     total cpu time spent up to now is       25.4 secs

     Computing kpt #:   123  of   151
     total cpu time spent up to now is       25.7 secs

     Computing kpt #:   124  of   151
     total cpu time spent up to now is       25.9 secs

     Computing kpt #:   125  of   151
     total cpu time spent up to now is       26.2 secs

     Computing kpt #:   126  of   151
     total cpu time spent up to now is       26.4 secs

     Computing kpt #:   127  of   151
     total cpu time spent up to now is       26.7 secs

     Computing kpt #:   128  of   151
     total cpu time spent up to now is       27.0 secs

     Computing kpt #:   129  of   151
     total cpu time spent up to now is       27.2 secs

     Computing kpt #:   130  of   151
     total cpu time spent up to now is       27.5 secs

     Computing kpt #:   131  of   151
     total cpu time spent up to now is       27.7 secs

     Computing kpt #:   132  of   151
     total cpu time spent up to now is       28.0 secs

     Computing kpt #:   133  of   151
     total cpu time spent up to now is       28.3 secs

     Computing kpt #:   134  of   151
     total cpu time spent up to now is       28.5 secs

     Computing kpt #:   135  of   151
     total cpu time spent up to now is       28.8 secs

     Computing kpt #:   136  of   151
     total cpu time spent up to now is       29.0 secs

     Computing kpt #:   137  of   151
     total cpu time spent up to now is       29.3 secs

     Computing kpt #:   138  of   151
     total cpu time spent up to now is       29.6 secs

     Computing kpt #:   139  of   151
     total cpu time spent up to now is       29.8 secs

     Computing kpt #:   140  of   151
     total cpu time spent up to now is       30.1 secs

     Computing kpt #:   141  of   151
     total cpu time spent up to now is       30.4 secs

     Computing kpt #:   142  of   151
     total cpu time spent up to now is       30.7 secs

     Computing kpt #:   143  of   151
     total cpu time spent up to now is       31.0 secs

     Computing kpt #:   144  of   151
     total cpu time spent up to now is       31.2 secs

     Computing kpt #:   145  of   151
     total cpu time spent up to now is       31.5 secs

     Computing kpt #:   146  of   151
     total cpu time spent up to now is       31.9 secs

     Computing kpt #:   147  of   151
     c_bands:  1 eigenvalues not converged
     total cpu time spent up to now is       32.2 secs

     Computing kpt #:   148  of   151
     total cpu time spent up to now is       32.5 secs

     Computing kpt #:   149  of   151
     total cpu time spent up to now is       32.8 secs

     Computing kpt #:   150  of   151
     total cpu time spent up to now is       33.1 secs

     Computing kpt #:   151  of   151
     total cpu time spent up to now is       33.4 secs

     ethr =  1.25E-12,  avg # of iterations = 57.9

     total cpu time spent up to now is       33.4 secs

     End of band structure calculation

          k =-0.3333 0.5774 0.0000 (  4251 PWs)   bands (ev):

   -14.9599 -14.9599 -12.9144  -2.3538  -2.3538   8.2577  10.5049  10.5049
    11.0973  12.3179  12.3179  12.4116  12.4116  12.4674  12.7299  13.1194

          k =-0.3267 0.5658 0.0000 (  4243 PWs)   bands (ev):

   -15.1099 -14.8238 -12.8942  -2.5436  -2.1650   8.2643  10.3871  10.5642
    11.0913  12.0042  12.0260  12.5387  12.6137  12.6458  12.7802  12.9820

          k =-0.3200 0.5543 0.0000 (  4231 PWs)   bands (ev):

   -15.2873 -14.6824 -12.8389  -2.7419  -1.9696   8.2825  10.1784  10.6074
    11.0776  11.6233  11.6310  12.6372  12.7060  12.7680  12.8185  12.8992

          k =-0.3133 0.5427 0.0000 (  4229 PWs)   bands (ev):

   -15.4846 -14.5360 -12.7559  -2.9477  -1.7675   8.3092   9.9082  10.6337
    11.0350  11.2391  11.2538  12.3189  12.4265  13.0059  13.0250  13.0832

          k =-0.3067 0.5312 0.0000 (  4223 PWs)   bands (ev):

   -15.6951 -14.3845 -12.6515  -3.1599  -1.5589   8.3398   9.6028  10.6430
    10.7876  10.8840  11.0420  11.9736  12.0910  13.2330  13.2522  13.2853

          k =-0.3000 0.5196 0.0000 (  4225 PWs)   bands (ev):

   -15.9142 -14.2278 -12.5304  -3.3776  -1.3439   8.3677   9.2785  10.4078
    10.5274  10.6362  10.9549  11.6316  11.7413  13.4435  13.4712  13.4809

          k =-0.2933 0.5081 0.0000 (  4223 PWs)   bands (ev):

   -16.1383 -14.0662 -12.3960  -3.5998  -1.1226   8.3829   8.9450  10.0260
    10.1889  10.6150  10.8454  11.3039  11.3926  13.2242  13.4543  13.6585

          k =-0.2867 0.4965 0.0000 (  4227 PWs)   bands (ev):

   -16.3649 -13.8995 -12.2506  -3.8254  -0.8952   8.3715   8.6083   9.6501
     9.8745  10.5811  10.6996  10.9993  11.0590  12.9206  13.1812  13.8804

          k =-0.2800 0.4850 0.0000 (  4225 PWs)   bands (ev):

   -16.5921 -13.7279 -12.0960  -4.0535  -0.6617   8.2718   8.3158   9.2816
     9.5894  10.4953  10.5364  10.7281  10.7683  12.6157  12.8644  14.1104

          k =-0.2733 0.4734 0.0000 (  4233 PWs)   bands (ev):

   -16.8187 -13.5513 -11.9336  -4.2833  -0.4224   7.9378   8.2003   8.9210
     9.3328  10.2164  10.4828  10.5016  10.5416  12.3239  12.5386  14.3493

          k =-0.2667 0.4619 0.0000 (  4239 PWs)   bands (ev):

   -17.0437 -13.3700 -11.7644  -4.5140  -0.1774   7.6080   8.0225   8.5687
     9.0925   9.8999  10.3269  10.3466  10.4217  12.0552  12.2121  14.5967

          k =-0.2600 0.4503 0.0000 (  4239 PWs)   bands (ev):

   -17.2662 -13.1838 -11.5891  -4.7447   0.0732   7.2834   7.7955   8.2247
     8.8506   9.5754  10.1573  10.1972  10.3548  11.8214  11.8887  14.4528

          k =-0.2533 0.4388 0.0000 (  4235 PWs)   bands (ev):

   -17.4857 -12.9930 -11.4085  -4.9748   0.3290   6.9648   7.5374   7.8892
     8.5972   9.2527   9.9671  10.0883  10.2831  11.5702  11.6362  14.1964

          k =-0.2467 0.4272 0.0000 (  4231 PWs)   bands (ev):

   -17.7017 -12.7975 -11.2230  -5.2037   0.5900   6.6526   7.2630   7.5621
     8.3324   8.9352   9.7752   9.9698  10.2075  11.2578  11.5117  13.9453

          k =-0.2400 0.4157 0.0000 (  4239 PWs)   bands (ev):

   -17.9138 -12.5974 -11.0332  -5.4307   0.8559   6.3474   6.9816   7.2437
     8.0605   8.6243   9.5823   9.8209  10.1290  10.9521  11.4492  13.7118

          k =-0.2333 0.4041 0.0000 (  4239 PWs)   bands (ev):

   -18.1217 -12.3930 -10.8396  -5.6552   1.1263   6.0495   6.6989   6.9338
     7.7859   8.3207   9.3892   9.6378  10.0480  10.6536  11.4332  13.5069

          k =-0.2267 0.3926 0.0000 (  4231 PWs)   bands (ev):

   -18.3251 -12.1841 -10.6425  -5.8769   1.4012   5.7590   6.4182   6.6326
     7.5119   8.0248   9.1970   9.4281   9.9650  10.3627  11.4365  13.3437

          k =-0.2200 0.3811 0.0000 (  4239 PWs)   bands (ev):

   -18.5239 -11.9711 -10.4423  -6.0952   1.6801   5.4762   6.1415   6.3401
     7.2409   7.7369   9.0066   9.2020   9.8805  10.0797  11.4288  13.1419

          k =-0.2133 0.3695 0.0000 (  4239 PWs)   bands (ev):

   -18.7177 -11.7539 -10.2396  -6.3098   1.9627   5.2012   5.8704   6.0562
     6.9744   7.4571   8.8188   8.9674   9.7946   9.8048  11.3857  12.8727

          k =-0.2067 0.3580 0.0000 (  4245 PWs)   bands (ev):

   -18.9066 -11.5328 -10.0345  -6.5203   2.2487   4.9342   5.6055   5.7810
     6.7134   7.1856   8.6341   8.7297   9.5381   9.7075  11.2973  12.6104

          k =-0.2000 0.3464 0.0000 (  4239 PWs)   bands (ev):

   -19.0902 -11.3079  -9.8276  -6.7262   2.5378   4.6752   5.3474   5.5144
     6.4588   6.9224   8.4532   8.4925   9.2798   9.6193  11.1680  12.3554

          k =-0.1933 0.3349 0.0000 (  4231 PWs)   bands (ev):

   -19.2686 -11.0793  -9.6193  -6.9275   2.8294   4.4244   5.0967   5.2566
     6.2110   6.6676   8.2582   8.2765   9.0300   9.5300  11.0095  12.1079

          k =-0.1867 0.3233 0.0000 (  4239 PWs)   bands (ev):

   -19.4415 -10.8474  -9.4100  -7.1236   3.1233   4.1818   4.8537   5.0075
     5.9705   6.4213   8.0283   8.1044   8.7889   9.4394  10.8332  11.8682

          k =-0.1800 0.3118 0.0000 (  4235 PWs)   bands (ev):

   -19.6089 -10.6123  -9.2002  -7.3145   3.4188   3.9474   4.6184   4.7671
     5.7375   6.1835   7.8038   7.9372   8.5566   9.3474  10.6474  11.6362

          k =-0.1733 0.3002 0.0000 (  4231 PWs)   bands (ev):

   -19.7708 -10.3743  -8.9902  -7.4999   3.7155   3.7213   4.3912   4.5355
     5.5123   5.9542   7.5855   7.7750   8.3333   9.2537  10.4578  11.4123

          k =-0.1667 0.2887 0.0000 (  4235 PWs)   bands (ev):

   -19.9269 -10.1336  -8.7806  -7.6795   3.5036   4.0127   4.1721   4.3125
     5.2950   5.7334   7.3740   7.6181   8.1191   9.1579  10.2680  11.1964

          k =-0.1600 0.2771 0.0000 (  4245 PWs)   bands (ev):

   -20.0774  -9.8906  -8.5719  -7.8532   3.2942   3.9612   4.0983   4.3100
     5.0857   5.5213   7.1697   7.4664   7.9144   9.0596  10.0806  10.9886

          k =-0.1533 0.2656 0.0000 (  4245 PWs)   bands (ev):

   -20.2220  -9.6457  -8.3647  -8.0208   3.0933   3.7587   3.8929   4.6066
     4.8846   5.3177   6.9728   7.3198   7.7194   8.9583   9.8971  10.7890

          k =-0.1467 0.2540 0.0000 (  4237 PWs)   bands (ev):

   -20.3608  -9.3991  -8.1822  -8.1593   2.9008   3.5645   3.6961   4.6917
     4.9018   5.1228   6.7835   7.1782   7.5345   8.8532   9.7188  10.5976

          k =-0.1400 0.2425 0.0000 (  4247 PWs)   bands (ev):

   -20.4938  -9.1515  -8.3372  -7.9565   2.7167   3.3788   3.5081   4.5072
     4.9365   5.1949   6.6021   7.0412   7.3604   8.7436   9.5463  10.4145

          k =-0.1333 0.2309 0.0000 (  4249 PWs)   bands (ev):

   -20.6207  -8.9033  -8.4856  -7.7568   2.5412   3.2015   3.3289   4.3310
     4.7588   5.4850   6.4286   6.9081   7.1976   8.6287   9.3803  10.2397

          k =-0.1267 0.2194 0.0000 (  4249 PWs)   bands (ev):

   -20.7417  -8.6550  -8.6275  -7.5609   2.3741   3.0328   3.1583   4.1633
     4.5898   5.7712   6.2633   6.7784   7.0469   8.5077   9.2212  10.0732

          k =-0.1200 0.2078 0.0000 (  4247 PWs)   bands (ev):

   -20.8567  -8.7626  -8.4073  -7.3693   2.2156   2.8726   2.9966   4.0040
     4.4295   6.0527   6.1061   6.6516   6.9090   8.3796   9.0694   9.9151

          k =-0.1133 0.1963 0.0000 (  4251 PWs)   bands (ev):

   -20.9656  -8.8908  -8.1610  -7.1827   2.0656   2.7210   2.8435   3.8532
     4.2778   5.9571   6.3284   6.5275   6.7838   8.2436   8.9251   9.7653

          k =-0.1067 0.1848 0.0000 (  4247 PWs)   bands (ev):

   -21.0684  -9.0121  -7.9169  -7.0019   1.9241   2.5779   2.6992   3.7109
     4.1347   5.8165   6.4065   6.5972   6.6712   8.0993   8.7884   9.6240

          k =-0.1000 0.1732 0.0000 (  4243 PWs)   bands (ev):

   -21.1651  -9.1265  -7.6758  -6.8274   1.7912   2.4435   2.5637   3.5771
     4.0004   5.6842   6.2895   6.5701   6.8582   7.9464   8.6595   9.4910

          k =-0.0933 0.1617 0.0000 (  4251 PWs)   bands (ev):

   -21.2557  -9.2337  -7.4389  -6.6600   1.6668   2.3177   2.4369   3.4519
     3.8747   5.5603   6.1774   6.4796   7.1101   7.7851   8.5387   9.3664

          k =-0.0867 0.1501 0.0000 (  4255 PWs)   bands (ev):

   -21.3401  -9.3338  -7.2072  -6.5004   1.5510   2.2005   2.3189   3.3353
     3.7576   5.4449   6.0711   6.3986   7.3517   7.6164   8.4258   9.2503

          k =-0.0800 0.1386 0.0000 (  4253 PWs)   bands (ev):

   -21.4184  -9.4267  -6.9821  -6.3492   1.4438   2.0920   2.2096   3.2273
     3.6493   5.3379   5.9714   6.3264   7.4417   7.5819   8.3211   9.1427

          k =-0.0733 0.1270 0.0000 (  4255 PWs)   bands (ev):

   -21.4904  -9.5124  -6.7649  -6.2071   1.3452   1.9921   2.1090   3.1279
     3.5496   5.2394   5.8786   6.2623   7.2632   7.7995   8.2246   9.0435

          k =-0.0667 0.1155 0.0000 (  4259 PWs)   bands (ev):

   -21.5563  -9.5908  -6.5573  -6.0749   1.2551   1.9009   2.0172   3.0371
     3.4586   5.1494   5.7933   6.2056   7.0838   8.0032   8.1363   8.9528

          k =-0.0600 0.1039 0.0000 (  4247 PWs)   bands (ev):

   -21.6159  -9.6618  -6.3610  -5.9530   1.1736   1.8183   1.9341   2.9549
     3.3763   5.0679   5.7157   6.1558   6.9065   8.0564   8.1919   8.8707

          k =-0.0533 0.0924 0.0000 (  4247 PWs)   bands (ev):

   -21.6692  -9.7254  -6.1778  -5.8422   1.1007   1.7444   1.8598   2.8813
     3.3027   4.9950   5.6460   6.1126   6.7348   7.9848   8.3643   8.7971

          k =-0.0467 0.0808 0.0000 (  4245 PWs)   bands (ev):

   -21.7164  -9.7816  -6.0096  -5.7430   1.0363   1.6793   1.7943   2.8164
     3.2377   4.9306   5.5842   6.0756   6.5724   7.9215   8.5194   8.7321

          k =-0.0400 0.0693 0.0000 (  4249 PWs)   bands (ev):

   -21.7572  -9.8304  -5.8583  -5.6559   0.9806   1.6227   1.7374   2.7601
     3.1814   4.8748   5.5306   6.0443   6.4229   7.8666   8.6561   8.6757

          k =-0.0333 0.0577 0.0000 (  4237 PWs)   bands (ev):

   -21.7918  -9.8717  -5.7261  -5.5814   0.9334   1.5749   1.6893   2.7125
     3.1338   4.8276   5.4851   6.0184   6.2896   7.8201   8.6279   8.7735

          k =-0.0267 0.0462 0.0000 (  4225 PWs)   bands (ev):

   -21.8201  -9.9056  -5.6147  -5.5199   0.8948   1.5358   1.6500   2.6736
     3.0948   4.7889   5.4478   5.9978   6.1757   7.7821   8.5887   8.8708

          k =-0.0200 0.0346 0.0000 (  4209 PWs)   bands (ev):

   -21.8421  -9.9319  -5.5261  -5.4717   0.8648   1.5053   1.6194   2.6432
     3.0645   4.7588   5.4188   5.9820   6.0841   7.7525   8.5582   8.9472

          k =-0.0133 0.0231 0.0000 (  4209 PWs)   bands (ev):

   -21.8578  -9.9507  -5.4615  -5.4370   0.8434   1.4836   1.5976   2.6216
     3.0428   4.7373   5.3981   5.9708   6.0168   7.7314   8.5365   9.0022

          k =-0.0067 0.0115 0.0000 (  4209 PWs)   bands (ev):

   -21.8673  -9.9620  -5.4223  -5.4162   0.8305   1.4706   1.5845   2.6086
     3.0298   4.7244   5.3856   5.9642   5.9758   7.7187   8.5234   9.0354

          k = 0.0000 0.0000 0.0000 (  4213 PWs)   bands (ev):

   -21.8704  -9.9658  -5.4092  -5.4092   0.8262   1.4662   1.5801   2.6043
     3.0255   4.7201   5.3815   5.9620   5.9620   7.7144   8.5190   9.0465

          k = 0.0000 0.0115 0.0000 (  4207 PWs)   bands (ev):

   -21.8681  -9.9630  -5.4191  -5.4144   0.8294   1.4695   1.5834   2.6075
     3.0288   4.7234   5.3846   5.9636   5.9724   7.7176   8.5223   9.0381

          k = 0.0000 0.0231 0.0000 (  4213 PWs)   bands (ev):

   -21.8610  -9.9545  -5.4486  -5.4300   0.8391   1.4793   1.5932   2.6173
     3.0385   4.7330   5.3939   5.9684   6.0034   7.7271   8.5321   9.0132

          k = 0.0000 0.0346 0.0000 (  4209 PWs)   bands (ev):

   -21.8492  -9.9404  -5.4975  -5.4558   0.8552   1.4956   1.6096   2.6335
     3.0547   4.7491   5.4095   5.9761   6.0549   7.7430   8.5484   8.9719

          k = 0.0000 0.0462 0.0000 (  4215 PWs)   bands (ev):

   -21.8327  -9.9206  -5.5652  -5.4914   0.8777   1.5184   1.6325   2.6562
     3.0775   4.7717   5.4312   5.9860   6.1265   7.7652   8.5713   8.9144

          k = 0.0000 0.0577 0.0000 (  4223 PWs)   bands (ev):

   -21.8114  -9.8952  -5.6513  -5.5364   0.9066   1.5477   1.6620   2.6855
     3.1067   4.8007   5.4592   5.9976   6.2177   7.7937   8.6007   8.8409

          k = 0.0000 0.0693 0.0000 (  4233 PWs)   bands (ev):

   -21.7855  -9.8642  -5.7549  -5.5904   0.9420   1.5836   1.6981   2.7212
     3.1424   4.8361   5.4932   6.0101   6.3280   7.8286   8.6365   8.7520

          k = 0.0000 0.0808 0.0000 (  4239 PWs)   bands (ev):

   -21.7548  -9.8276  -5.8752  -5.6525   0.9838   1.6260   1.7407   2.7634
     3.1846   4.8780   5.5334   6.0228   6.4567   7.8697   8.6481   8.6789

          k = 0.0000 0.0924 0.0000 (  4243 PWs)   bands (ev):

   -21.7195  -9.7854  -6.0112  -5.7223   1.0320   1.6749   1.7899   2.8121
     3.2334   4.9263   5.5794   6.0349   6.6030   7.9172   8.5296   8.7277

          k = 0.0000 0.1039 0.0000 (  4247 PWs)   bands (ev):

   -21.6794  -9.7376  -6.1619  -5.7990   1.0867   1.7303   1.8456   2.8673
     3.2886   4.9810   5.6310   6.0458   6.7664   7.9707   8.3974   8.7829

          k = 0.0000 0.1155 0.0000 (  4251 PWs)   bands (ev):

   -21.6347  -9.6842  -6.3264  -5.8819   1.1478   1.7922   1.9079   2.9289
     3.3503   5.0422   5.6878   6.0555   6.9458   8.0300   8.2524   8.8445

          k = 0.0000 0.1270 0.0000 (  4251 PWs)   bands (ev):

   -21.5853  -9.6253  -6.5035  -5.9701   1.2154   1.8607   1.9768   2.9970
     3.4185   5.1097   5.7487   6.0643   7.1405   8.0738   8.1163   8.9125

          k = 0.0000 0.1386 0.0000 (  4245 PWs)   bands (ev):

   -21.5312  -9.5609  -6.6922  -6.0631   1.2893   1.9356   2.0522   3.0716
     3.4932   5.1836   5.8115   6.0739   7.3497   7.9191   8.1730   8.9868

          k = 0.0000 0.1501 0.0000 (  4251 PWs)   bands (ev):

   -21.4724  -9.4910  -6.8914  -6.1600   1.3697   2.0170   2.1341   3.1527
     3.5744   5.2638   5.8712   6.0891   7.5725   7.7378   8.2512   9.0675

          k = 0.0000 0.1617 0.0000 (  4261 PWs)   bands (ev):

   -21.4090  -9.4156  -7.1003  -6.2602   1.4566   2.1050   2.2226   3.2402
     3.6621   5.3504   5.9177   6.1199   7.5452   7.8082   8.3363   9.1545

          k = 0.0000 0.1732 0.0000 (  4265 PWs)   bands (ev):

   -21.3409  -9.3348  -7.3179  -6.3631   1.5498   2.1994   2.3177   3.3341
     3.7562   5.4432   5.9411   6.1761   7.3425   8.0559   8.4277   9.2478

          k = 0.0000 0.1848 0.0000 (  4257 PWs)   bands (ev):

   -21.2682  -9.2487  -7.5431  -6.4679   1.6495   2.3002   2.4194   3.4345
     3.8569   5.5422   5.9438   6.2556   7.1306   8.3149   8.5254   9.3474

          k = 0.0000 0.1963 0.0000 (  4263 PWs)   bands (ev):

   -21.1909  -9.1571  -7.7753  -6.5742   1.7555   2.4076   2.5275   3.5412
     3.9639   5.6471   5.9335   6.3507   6.9104   8.5844   8.6293   9.4534

          k = 0.0000 0.2078 0.0000 (  4257 PWs)   bands (ev):

   -21.1089  -9.0603  -8.0136  -6.6813   1.8680   2.5213   2.6423   3.6543
     4.0775   5.7572   5.9152   6.4568   6.6834   8.7394   8.8637   9.5656

          k = 0.0000 0.2194 0.0000 (  4263 PWs)   bands (ev):

   -21.0224  -8.9582  -8.2572  -6.7888   1.9869   2.6415   2.7636   3.7736
     4.1974   5.8707   5.8914   6.4521   6.5717   8.8557   9.1520   9.6841

          k = 0.0000 0.2309 0.0000 (  4263 PWs)   bands (ev):

   -20.9313  -8.8510  -8.5054  -6.8962   2.1121   2.7681   2.8914   3.8992
     4.3238   5.8636   5.9733   6.2315   6.6944   8.9781   9.4487   9.8089

          k = 0.0000 0.2425 0.0000 (  4251 PWs)   bands (ev):

   -20.8356  -8.7576  -8.7386  -7.0031   2.2437   2.9009   3.0258   4.0307
     4.4564   5.8327   5.9100   6.1777   6.8243   9.1066   9.7531   9.9400

          k = 0.0000 0.2540 0.0000 (  4245 PWs)   bands (ev):

   -20.7354  -9.0132  -8.6212  -7.1090   2.3817   3.0400   3.1668   4.1679
     4.5954   5.6783   5.7995   6.2939   6.9612   9.2411  10.0644  10.0773

          k = 0.0000 0.2656 0.0000 (  4237 PWs)   bands (ev):

   -20.6306  -9.2715  -8.4988  -7.2136   2.5261   3.1852   3.3143   4.3098
     4.7404   5.4274   5.7646   6.4329   7.1049   9.3816  10.2210  10.3821

          k = 0.0000 0.2771 0.0000 (  4233 PWs)   bands (ev):

   -20.5214  -9.5321  -8.3715  -7.3165   2.6768   3.3362   3.4683   4.4534
     4.8913   5.1746   5.7289   6.5812   7.2553   9.5279  10.3709  10.7054

          k = 0.0000 0.2887 0.0000 (  4237 PWs)   bands (ev):

   -20.4077  -9.7945  -8.2395  -7.4175   2.8338   3.4922   3.6289   4.5815
     4.9403   5.0473   5.6934   6.7368   7.4123   9.6802  10.5270  11.0336

          k = 0.0000 0.3002 0.0000 (  4239 PWs)   bands (ev):

   -20.2895 -10.0583  -8.1028  -7.5162   2.9972   3.6514   3.7960   4.5538
     4.8679   5.2067   5.6604   6.8992   7.5759   9.8382  10.6894  11.3660

          k = 0.0000 0.3118 0.0000 (  4249 PWs)   bands (ev):

   -20.1669 -10.3229  -7.9615  -7.6125   3.1668   3.8055   3.9696   4.3383
     4.9984   5.3622   5.6375   7.0680   7.7459  10.0018  10.8580  11.7018

          k = 0.0000 0.3233 0.0000 (  4257 PWs)   bands (ev):

   -20.0400 -10.5880  -7.8159  -7.7060   3.3426   3.8871   4.1497   4.1689
     5.1660   5.4748   5.6640   7.2433   7.9225  10.1710  11.0329  12.0403

          k = 0.0000 0.3349 0.0000 (  4263 PWs)   bands (ev):

   -19.9087 -10.8533  -7.7965  -7.6661   3.5247   3.7174   4.2500   4.3363
     5.3459   5.4890   5.7958   7.4248   8.1054  10.3456  11.2138  12.3807

          k = 0.0000 0.3464 0.0000 (  4265 PWs)   bands (ev):

   -19.7730 -11.1183  -7.8839  -7.5123   3.4599   3.7128   4.4224   4.5292
     5.4648   5.5341   5.9733   7.6125   8.2948  10.5254  11.4009  12.7221

          k = 0.0000 0.3580 0.0000 (  4273 PWs)   bands (ev):

   -19.6331 -11.3828  -7.9680  -7.3548   3.1892   3.9070   4.6135   4.7284
     5.4334   5.7296   6.1657   7.8064   8.4906  10.7102  11.5941  13.0635

          k = 0.0000 0.3695 0.0000 (  4269 PWs)   bands (ev):

   -19.4890 -11.6465  -8.0485  -7.1937   2.9151   4.1070   4.8144   4.9332
     5.4016   5.9319   6.3672   8.0063   8.6927  10.8997  11.7933  13.4040

          k = 0.0000 0.3811 0.0000 (  4267 PWs)   bands (ev):

   -19.3407 -11.9090  -8.1255  -7.0294   2.6404   4.3126   5.0231   5.1408
     5.3743   6.1408   6.5764   8.2123   8.9011  11.0935  11.9984  13.4305

          k = 0.0000 0.3926 0.0000 (  4267 PWs)   bands (ev):

   -19.1884 -12.1701  -8.1986  -6.8623   2.3668   4.5229   5.2389   5.2998
     5.4042   6.3561   6.7926   8.4242   9.1159  11.2910  12.2093  13.3508

          k = 0.0000 0.4041 0.0000 (  4263 PWs)   bands (ev):

   -19.0320 -12.4295  -8.2678  -6.6928   2.0952   4.7360   5.2989   5.4614
     5.6051   6.5778   7.0156   8.6419   9.3369  11.4915  12.4254  13.2190

          k = 0.0000 0.4157 0.0000 (  4261 PWs)   bands (ev):

   -18.8717 -12.6869  -8.3331  -6.5214   1.8268   4.9444   5.2886   5.6904
     5.8342   6.8059   7.2452   8.8654   9.5641  11.6935  12.6448  13.0407

          k = 0.0000 0.4272 0.0000 (  4257 PWs)   bands (ev):

   -18.7076 -12.9421  -8.3942  -6.3488   1.5625   5.1068   5.3297   5.9259
     6.0721   7.0402   7.4813   9.0945   9.7976  11.8949  12.7804  12.9098

          k = 0.0000 0.4388 0.0000 (  4261 PWs)   bands (ev):

   -18.5398 -13.1948  -8.4512  -6.1758   1.3035   5.1502   5.4971   6.1678
     6.3172   7.2806   7.7239   9.3290  10.0371  12.0908  12.5468  13.1206

          k = 0.0000 0.4503 0.0000 (  4267 PWs)   bands (ev):

   -18.3685 -13.4446  -8.5038  -6.0032   1.0508   5.1422   5.7235   6.4159
     6.5690   7.5272   7.9730   9.5686  10.2827  12.2674  12.2690  13.3065

          k = 0.0000 0.4619 0.0000 (  4263 PWs)   bands (ev):

   -18.1940 -13.6913  -8.5521  -5.8322   0.8060   5.1250   5.9670   6.6702
     6.8276   7.7799   8.2284   9.8131  10.5343  11.9691  12.3897  13.0727

          k = 0.0000 0.4734 0.0000 (  4261 PWs)   bands (ev):

   -18.0165 -13.9343  -8.5960  -5.6642   0.5706   5.1063   6.2200   6.9306
     7.0928   8.0385   8.4902  10.0618  10.7914  11.6592  12.3454  12.9702

          k = 0.0000 0.4850 0.0000 (  4265 PWs)   bands (ev):

   -17.8365 -14.1731  -8.6354  -5.5010   0.3466   5.0882   6.4803   7.1971
     7.3645   8.3030   8.7583  10.3138  11.0516  11.3444  12.1200  12.5907

          k = 0.0000 0.4965 0.0000 (  4269 PWs)   bands (ev):

   -17.6547 -14.4071  -8.6703  -5.3446   0.1362   5.0716   6.7471   7.4695
     7.6428   8.5732   9.0326  10.5666  11.0122  11.3309  11.8287  12.2171

          k = 0.0000 0.5081 0.0000 (  4273 PWs)   bands (ev):

   -17.4720 -14.6351  -8.7006  -5.1978  -0.0577   5.0568   7.0201   7.7477
     7.9276   8.8489   9.3130  10.6912  10.8115  11.5274  11.6026  11.8497

          k = 0.0000 0.5196 0.0000 (  4271 PWs)   bands (ev):

   -17.2902 -14.8554  -8.7263  -5.0636  -0.2320   5.0441   7.2990   8.0315
     8.2189   9.1298   9.5991  10.3682  10.9771  11.2985  11.4872  11.8835

          k = 0.0000 0.5312 0.0000 (  4276 PWs)   bands (ev):

   -17.1119 -15.0652  -8.7474  -4.9455  -0.3829   5.0335   7.5834   8.3208
     8.5166   9.4151   9.8860  10.0517  10.7968  11.1320  11.4015  11.9676

          k = 0.0000 0.5427 0.0000 (  4282 PWs)   bands (ev):

   -16.9426 -15.2591  -8.7638  -4.8477  -0.5064   5.0253   7.8731   8.6151
     8.8207   9.7026   9.7214  10.1951  10.4972  10.7829  11.4861  11.8110

          k = 0.0000 0.5543 0.0000 (  4280 PWs)   bands (ev):

   -16.7925 -15.4268  -8.7756  -4.7740  -0.5985   5.0193   8.1674   8.9137
     9.1304   9.4073   9.9698  10.2106  10.4387  10.5000  11.2482  11.7755

          k = 0.0000 0.5658 0.0000 (  4270 PWs)   bands (ev):

   -16.6813 -15.5485  -8.7826  -4.7282  -0.6554   5.0157   8.4642   9.0944
     9.2139   9.4506   9.8434  10.1035  10.3196  10.8091  10.9540  11.4483

          k = 0.0000 0.5774 0.0000 (  4268 PWs)   bands (ev):

   -16.6385 -15.5949  -8.7850  -4.7126  -0.6747   5.0145   8.7078   8.8470
     9.4565   9.6038   9.7683   9.7787  10.5331  10.7319  11.1095  11.1423

          k =-0.0067 0.5774 0.0000 (  4274 PWs)   bands (ev):

   -16.6378 -15.5942  -8.7885  -4.7116  -0.6749   5.0193   8.7088   8.8480
     9.4568   9.6049   9.7694   9.7798  10.5335  10.7330  11.1105  11.1434

          k =-0.0133 0.5774 0.0000 (  4266 PWs)   bands (ev):

   -16.6358 -15.5922  -8.7992  -4.7088  -0.6756   5.0337   8.7116   8.8509
     9.4578   9.6081   9.7726   9.7830  10.5347  10.7363  11.1135  11.1465

          k =-0.0200 0.5774 0.0000 (  4268 PWs)   bands (ev):

   -16.6324 -15.5889  -8.8170  -4.7040  -0.6767   5.0577   8.7162   8.8559
     9.4594   9.6136   9.7780   9.7884  10.5366  10.7417  11.1185  11.1517

          k =-0.0267 0.5774 0.0000 (  4264 PWs)   bands (ev):

   -16.6277 -15.5842  -8.8417  -4.6972  -0.6783   5.0912   8.7228   8.8629
     9.4616   9.6212   9.7856   9.7960  10.5394  10.7493  11.1256  11.1590

          k =-0.0333 0.5774 0.0000 (  4276 PWs)   bands (ev):

   -16.6216 -15.5782  -8.8733  -4.6886  -0.6804   5.1339   8.7312   8.8718
     9.4643   9.6310   9.7953   9.8058  10.5428  10.7591  11.1347  11.1684

          k =-0.0400 0.5774 0.0000 (  4274 PWs)   bands (ev):

   -16.6142 -15.5709  -8.9116  -4.6781  -0.6830   5.1859   8.7415   8.8828
     9.4673   9.6429   9.8072   9.8177  10.5470  10.7711  11.1457  11.1799

          k =-0.0467 0.5774 0.0000 (  4276 PWs)   bands (ev):

   -16.6054 -15.5622  -8.9564  -4.6656  -0.6861   5.2468   8.7536   8.8957
     9.4705   9.6571   9.8212   9.8318  10.5519  10.7852  11.1588  11.1934

          k =-0.0533 0.5774 0.0000 (  4280 PWs)   bands (ev):

   -16.5953 -15.5523  -9.0076  -4.6512  -0.6898   5.3166   8.7676   8.9106
     9.4737   9.6734   9.8374   9.8481  10.5574  10.8015  11.1739  11.2091

          k =-0.0600 0.5774 0.0000 (  4280 PWs)   bands (ev):

   -16.5838 -15.5410  -9.0649  -4.6350  -0.6942   5.3949   8.7835   8.9275
     9.4768   9.6919   9.8558   9.8665  10.5636  10.8200  11.1909  11.2268

          k =-0.0667 0.5774 0.0000 (  4276 PWs)   bands (ev):

   -16.5710 -15.5285  -9.1281  -4.6168  -0.6992   5.4814   8.8011   8.9463
     9.4795   9.7126   9.8763   9.8871  10.5704  10.8406  11.2100  11.2465

          k =-0.0733 0.5774 0.0000 (  4274 PWs)   bands (ev):

   -16.5569 -15.5146  -9.1970  -4.5966  -0.7050   5.5760   8.8206   8.9671
     9.4814   9.7354   9.8989   9.9098  10.5778  10.8635  11.2310  11.2684

          k =-0.0800 0.5774 0.0000 (  4270 PWs)   bands (ev):

   -16.5414 -15.4995  -9.2712  -4.5746  -0.7115   5.6783   8.8419   8.9898
     9.4823   9.7604   9.9238   9.9348  10.5859  10.8885  11.2540  11.2923

          k =-0.0867 0.5774 0.0000 (  4270 PWs)   bands (ev):

   -16.5245 -15.4832  -9.3506  -4.5507  -0.7189   5.7880   8.8650   9.0145
     9.4818   9.7876   9.9507   9.9619  10.5947  10.9157  11.2790  11.3183

          k =-0.0933 0.5774 0.0000 (  4280 PWs)   bands (ev):

   -16.5063 -15.4656  -9.4348  -4.5249  -0.7271   5.9048   8.8899   9.0412
     9.4795   9.8170   9.9798   9.9911  10.6042  10.9450  11.3059  11.3463

          k =-0.1000 0.5774 0.0000 (  4284 PWs)   bands (ev):

   -16.4868 -15.4468  -9.5235  -4.4971  -0.7364   6.0283   8.9166   9.0697
     9.4748   9.8485  10.0111  10.0225  10.6148  10.9765  11.3347  11.3764

          k =-0.1067 0.5774 0.0000 (  4274 PWs)   bands (ev):

   -16.4659 -15.4267  -9.6164  -4.4675  -0.7467   6.1583   8.9450   9.1002
     9.4675   9.8823  10.0445  10.0561  10.6264  11.0102  11.3655  11.4085

          k =-0.1133 0.5774 0.0000 (  4266 PWs)   bands (ev):

   -16.4436 -15.4055  -9.7133  -4.4359  -0.7582   6.2944   8.9751   9.1326
     9.4569   9.9181  10.0801  10.0918  10.6394  11.0461  11.3981  11.4427

          k =-0.1200 0.5774 0.0000 (  4256 PWs)   bands (ev):

   -16.4200 -15.3832  -9.8139  -4.4025  -0.7709   6.4362   9.0069   9.1669
     9.4427   9.9562  10.1178  10.1297  10.6539  11.0841  11.4327  11.4789

          k =-0.1267 0.5774 0.0000 (  4256 PWs)   bands (ev):

   -16.3951 -15.3597  -9.9179  -4.3672  -0.7849   6.5834   9.0405   9.2031
     9.4244   9.9964  10.1577  10.1698  10.6703  11.1243  11.4690  11.5171

          k =-0.1333 0.5774 0.0000 (  4250 PWs)   bands (ev):

   -16.3688 -15.3351 -10.0250  -4.3299  -0.8003   6.7356   9.0756   9.2411
     9.4019  10.0388  10.1997  10.2120  10.6890  11.1667  11.5073  11.5573

          k =-0.1400 0.5774 0.0000 (  4252 PWs)   bands (ev):

   -16.3412 -15.3095 -10.1348  -4.2908  -0.8173   6.8924   9.1124   9.2810
     9.3748  10.0834  10.2438  10.2564  10.7101  11.2113  11.5473  11.5995

          k =-0.1467 0.5774 0.0000 (  4252 PWs)   bands (ev):

   -16.3122 -15.2828 -10.2473  -4.2498  -0.8359   7.0536   9.1508   9.3228
     9.3431  10.1302  10.2901  10.3029  10.7339  11.2580  11.5891  11.6437

          k =-0.1533 0.5774 0.0000 (  4254 PWs)   bands (ev):

   -16.2819 -15.2553 -10.3620  -4.2069  -0.8562   7.2187   9.1908   9.3070
     9.3664  10.1791  10.3385  10.3516  10.7607  11.3069  11.6326  11.6899

          k =-0.1600 0.5774 0.0000 (  4256 PWs)   bands (ev):

   -16.2503 -15.2268 -10.4786  -4.1621  -0.8783   7.3873   9.2322   9.2664
     9.4118  10.2302  10.3891  10.4024  10.7907  11.3580  11.6779  11.7381

          k =-0.1667 0.5774 0.0000 (  4252 PWs)   bands (ev):

   -16.2173 -15.1974 -10.5970  -4.1155  -0.9023   7.5590   9.2220   9.2752
     9.4590  10.2835  10.4417  10.4554  10.8240  11.4112  11.7248  11.7881

          k =-0.1733 0.5774 0.0000 (  4246 PWs)   bands (ev):

   -16.1830 -15.1674 -10.7168  -4.0670  -0.9284   7.7335   9.1739   9.3195
     9.5080  10.3389  10.4965  10.5105  10.8607  11.4666  11.7732  11.8402

          k =-0.1800 0.5774 0.0000 (  4244 PWs)   bands (ev):

   -16.1473 -15.1366 -10.8378  -4.0166  -0.9567   7.9102   9.1229   9.3652
     9.5588  10.3965  10.5534  10.5678  10.9007  11.5242  11.8232  11.8941

          k =-0.1867 0.5774 0.0000 (  4248 PWs)   bands (ev):

   -16.1103 -15.1053 -10.9597  -3.9643  -0.9872   8.0887   9.0695   9.4122
     9.6114  10.4563  10.6124  10.6272  10.9442  11.5839  11.8747  11.9499

          k =-0.1933 0.5774 0.0000 (  4246 PWs)   bands (ev):

   -16.0719 -15.0735 -11.0822  -3.9102  -1.0200   8.2685   9.0142   9.4604
     9.6659  10.5182  10.6735  10.6887  10.9909  11.6458  11.9276  12.0075

          k =-0.2000 0.5774 0.0000 (  4244 PWs)   bands (ev):

   -16.0323 -15.0413 -11.2050  -3.8542  -1.0553   8.4490   8.9578   9.5098
     9.7221  10.5823  10.7368  10.7524  11.0410  11.7099  11.9817  12.0670

          k =-0.2067 0.5774 0.0000 (  4238 PWs)   bands (ev):

   -15.9912 -15.0090 -11.3277  -3.7964  -1.0931   8.6294   8.9008   9.5602
     9.7803  10.6486  10.8021  10.8183  11.0942  11.7761  12.0371  12.1283

          k =-0.2133 0.5774 0.0000 (  4236 PWs)   bands (ev):

   -15.9489 -14.9768 -11.4502  -3.7367  -1.1335   8.8092   8.8438   9.6116
     9.8406  10.7170  10.8694  10.8862  11.1506  11.8445  12.0935  12.1914

          k =-0.2200 0.5774 0.0000 (  4240 PWs)   bands (ev):

   -15.9052 -14.9448 -11.5719  -3.6752  -1.1767   8.7874   8.9873   9.6639
     9.9030  10.7876  10.9389  10.9564  11.2100  11.9151  12.1508  12.2562

          k =-0.2267 0.5774 0.0000 (  4246 PWs)   bands (ev):

   -15.8602 -14.9133 -11.6925  -3.6119  -1.2226   8.7322   9.1627   9.7169
     9.9681  10.8604  11.0104  11.0286  11.2723  11.9878  12.2090  12.3226

          k =-0.2333 0.5774 0.0000 (  4250 PWs)   bands (ev):

   -15.8138 -14.8826 -11.8116  -3.5467  -1.2714   8.6785   9.3339   9.7705
    10.0361  10.9353  11.0840  11.1030  11.3375  12.0627  12.2677  12.3907

          k =-0.2400 0.5774 0.0000 (  4244 PWs)   bands (ev):

   -15.7662 -14.8532 -11.9287  -3.4797  -1.3231   8.6269   9.4991   9.8245
    10.1080  11.0124  11.1595  11.1795  11.4054  12.1398  12.3269  12.4603

          k =-0.2467 0.5774 0.0000 (  4242 PWs)   bands (ev):

   -15.7171 -14.8254 -12.0431  -3.4108  -1.3777   8.5778   9.6561   9.8789
    10.1849  11.0916  11.2371  11.2581  11.4759  12.2190  12.3863  12.5313

          k =-0.2533 0.5774 0.0000 (  4249 PWs)   bands (ev):

   -15.6668 -14.7998 -12.1544  -3.3402  -1.4353   8.5314   9.8019   9.9333
    10.2681  11.1731  11.3167  11.3389  11.5489  12.3003  12.4458  12.6036

          k =-0.2600 0.5774 0.0000 (  4241 PWs)   bands (ev):

   -15.6151 -14.7770 -12.2617  -3.2678  -1.4959   8.4881   9.9338   9.9877
    10.3591  11.2566  11.3982  11.4217  11.6243  12.3839  12.5050  12.6770

          k =-0.2667 0.5774 0.0000 (  4241 PWs)   bands (ev):

   -15.5622 -14.7578 -12.3643  -3.1935  -1.5595   8.4481  10.0418  10.0497
    10.4580  11.3423  11.4817  11.5067  11.7020  12.4696  12.5638  12.7512

          k =-0.2733 0.5774 0.0000 (  4237 PWs)   bands (ev):

   -15.5078 -14.7430 -12.4612  -3.1175  -1.6260   8.4117  10.0954  10.1496
    10.5625  11.4302  11.5671  11.5936  11.7819  12.5574  12.6219  12.8258

          k =-0.2800 0.5774 0.0000 (  4241 PWs)   bands (ev):

   -15.4522 -14.7336 -12.5513  -3.0396  -1.6956   8.3790  10.1482  10.2355
    10.6683  11.5203  11.6543  11.6826  11.8636  12.6474  12.6792  12.8998

          k =-0.2867 0.5774 0.0000 (  4237 PWs)   bands (ev):

   -15.3953 -14.7306 -12.6337  -2.9600  -1.7681   8.3501  10.1998  10.3096
    10.7701  11.6124  11.7434  11.7734  11.9469  12.7356  12.7396  12.9719

          k =-0.2933 0.5774 0.0000 (  4243 PWs)   bands (ev):

   -15.3370 -14.7351 -12.7070  -2.8787  -1.8436   8.3251  10.2502  10.3738
    10.8630  11.7068  11.8342  11.8660  12.0314  12.7911  12.8339  13.0390

          k =-0.3000 0.5774 0.0000 (  4239 PWs)   bands (ev):

   -15.2774 -14.7480 -12.7703  -2.7955  -1.9219   8.3041  10.2988  10.4285
    10.9427  11.8033  11.9267  11.9601  12.1162  12.8457  12.9303  13.0930

          k =-0.3067 0.5774 0.0000 (  4245 PWs)   bands (ev):

   -15.2165 -14.7703 -12.8226  -2.7106  -2.0030   8.2871  10.3454  10.4733
    11.0063  11.9019  12.0208  12.0556  12.2000  12.8998  13.0290  13.1015

          k =-0.3133 0.5774 0.0000 (  4247 PWs)   bands (ev):

   -15.1543 -14.8026 -12.8633  -2.6240  -2.0868   8.2741  10.3896  10.5065
    11.0520  12.0027  12.1165  12.1522  12.2797  12.9536  12.9920  13.0254

          k =-0.3200 0.5774 0.0000 (  4247 PWs)   bands (ev):

   -15.0908 -14.8451 -12.8921  -2.5356  -2.1733   8.2649  10.4312  10.5254
    11.0803  12.1056  12.2136  12.2497  12.3468  12.8188  12.8923  13.0077

          k =-0.3267 0.5774 0.0000 (  4247 PWs)   bands (ev):

   -15.0260 -14.8977 -12.9090  -2.4456  -2.2623   8.2595  10.4697  10.5262
    11.0939  12.2107  12.3120  12.3472  12.3761  12.6299  12.7740  13.0627

          k =-0.3333 0.5774 0.0000 (  4251 PWs)   bands (ev):

   -14.9599 -14.9599 -12.9144  -2.3538  -2.3538   8.2577  10.5049  10.5049
    11.0973  12.3179  12.3179  12.4116  12.4116  12.4674  12.7299  13.1194

     Writing all to output data dir ../SCF/out/graphene.save/

     init_run     :      0.37s CPU      0.47s WALL (       1 calls)
     electrons    :     13.57s CPU     31.49s WALL (       1 calls)

     Called by init_run:
     wfcinit      :      0.00s CPU      0.00s WALL (       1 calls)
     wfcinit:atom :      0.00s CPU      0.01s WALL (     151 calls)
     wfcinit:wfcr :      0.31s CPU      0.78s WALL (     151 calls)
     potinit      :      0.20s CPU      0.23s WALL (       1 calls)
     hinit0       :      0.14s CPU      0.19s WALL (       1 calls)

     Called by electrons:
     c_bands      :     13.57s CPU     31.45s WALL (       1 calls)
     v_of_rho     :      0.00s CPU      0.01s WALL (       1 calls)
     v_h          :      0.00s CPU      0.00s WALL (       1 calls)
     v_xc         :      0.00s CPU      0.01s WALL (       1 calls)
     newd         :      0.01s CPU      0.01s WALL (       1 calls)
     PAW_pot      :      0.01s CPU      0.02s WALL (       1 calls)

     Called by c_bands:
     init_us_2    :      0.00s CPU      0.01s WALL (     151 calls)
     init_us_2:cp :      0.00s CPU      0.01s WALL (     151 calls)
     cegterg      :     13.20s CPU     30.35s WALL (     502 calls)

     Called by sum_band:

     Called by *egterg:
     cdiaghg      :      1.13s CPU      2.30s WALL (    8890 calls)
     cegterg:over :      0.83s CPU      2.21s WALL (    8739 calls)
     cegterg:upda :      0.13s CPU      0.23s WALL (    8739 calls)
     cegterg:last :      0.30s CPU      0.52s WALL (    5835 calls)
     h_psi        :     10.48s CPU     24.53s WALL (    9392 calls)
     s_psi        :      0.05s CPU      0.11s WALL (    9392 calls)
     g_psi        :      0.06s CPU      0.10s WALL (    8739 calls)

     Called by h_psi:
     h_psi:calbec :      0.44s CPU      1.10s WALL (    9392 calls)
     vloc_psi     :      9.95s CPU     23.26s WALL (    9392 calls)
     add_vuspsi   :      0.05s CPU      0.12s WALL (    9392 calls)

     General routines
     calbec       :      0.44s CPU      1.09s WALL (    9392 calls)
     fft          :      0.10s CPU      0.15s WALL (      13 calls)
     ffts         :      0.19s CPU      0.19s WALL (       1 calls)
     fftw         :      9.33s CPU     22.03s WALL (  170100 calls)
     interpolate  :      0.19s CPU      0.19s WALL (       1 calls)
     davcio       :      0.01s CPU      0.12s WALL (     302 calls)

     Parallel routines

     PAW routines
     PAW_pot      :      0.01s CPU      0.02s WALL (       1 calls)

     PWSCF        :     14.56s CPU     36.37s WALL


   This run was terminated on:  19:44:10  10Dec2023            

=------------------------------------------------------------------------------=
   JOB DONE.
=------------------------------------------------------------------------------=
