
     Program BANDS v.7.2 starts on 10Dec2023 at 19:46:44 

     This program is part of the open-source Quantum ESPRESSO suite
     for quantum simulation of materials; please cite
         "P. Giannozzi et al., J. Phys.:Condens. Matter 21 395502 (2009);
         "P. Giannozzi et al., J. Phys.:Condens. Matter 29 465901 (2017);
         "P. Giannozzi et al., J. Chem. Phys. 152 154105 (2020);
          URL http://www.quantum-espresso.org", 
     in publications or presentations arising from this work. More details at
     http://www.quantum-espresso.org/quote

     Parallel version (MPI & OpenMP), running on      16 processor cores
     Number of MPI processes:                16
     Threads/MPI process:                     1

     MPI processes distributed on     1 nodes
     R & G space division:  proc/nbgrp/npool/nimage =      16
     510531 MiB available memory on the printing compute node when the environment starts


     Reading xml data from directory:

     ../SCF/out/graphene.save/
     file C.pbe-n-kjpaw_psl.1.0.0.UPF: wavefunction(s)  2S 2P renormalized

     IMPORTANT: XC functional enforced from input :
     Exchange-correlation= PBE
                           (   1   4   3   4   0   0   0)
     Any further DFT definition will be discarded
     Please, verify this is what you really want


     Parallelization info
     --------------------
     sticks:   dense  smooth     PW     G-vecs:    dense   smooth      PW
     Min          37      18      5                 5987     2112     359
     Max          38      19      6                 6014     2141     400
     Sum         595     301     91                96043    34107    6065

     Using Slab Decomposition


     Check: negative core charge=   -0.000002

     negative rho (up, down):  1.822E-04 0.000E+00
     Reading collected, re-writing distributed wavefunctions
     high-symmetry point: -0.3333 0.5774 0.0000   x coordinate   0.0000
     high-symmetry point:  0.0000 0.0000 0.0000   x coordinate   0.6667
     high-symmetry point:  0.0000 0.5774 0.0000   x coordinate   1.2440
     high-symmetry point: -0.3333 0.5774 0.0000   x coordinate   1.5774

     Plottable bands (eV) written to file graphene.gnu
     Bands written to file graphene

 **************************************************************************

                    xk=(  -0.33333,   0.57735,   0.00000  )

     zone border point and non-symmorphic group 
     symmetry decomposition not available

 **************************************************************************

 **************************************************************************

                    xk=(  -0.32667,   0.56580,   0.00000  )

     point group C_2v (mm2) 
     there are  4 classes
     the character table:

       E     C2    s_v   s_v' 
A_1    1.00  1.00  1.00  1.00
A_2    1.00  1.00 -1.00 -1.00
B_1    1.00 -1.00  1.00 -1.00
B_2    1.00 -1.00 -1.00  1.00

     the symmetry operations in each class and the name of the first element:

     E        1
                                                                 
     C2       2
                                                                 
     s_v      4
                                                                 
     s_v'     3
                                                                 

     Band symmetry, C_2v (mm2)  point group:

     e(  1 -  1) =    -15.10986  eV     1   --> A_1  D_1  S_1  
     e(  2 -  2) =    -14.82375  eV     1   --> B_2  D_4  S_4  
     e(  3 -  3) =    -12.89425  eV     1   --> A_1  D_1  S_1  
     e(  4 -  4) =     -2.54361  eV     1   --> B_1  D_3  S_3  
     e(  5 -  5) =     -2.16504  eV     1   --> A_2  D_2  S_2  
     e(  6 -  6) =      8.26432  eV     1   --> B_1  D_3  S_3  
     e(  7 -  7) =     10.38708  eV     1   --> A_1  D_1  S_1  
     e(  8 -  8) =     10.56423  eV     1   --> B_2  D_4  S_4  
     e(  9 -  9) =     11.09128  eV     1   --> A_1  D_1  S_1  
     e( 10 - 10) =     12.00420  eV     1   --> B_1  D_3  S_3  
     e( 11 - 11) =     12.02602  eV     1   --> A_1  D_1  S_1  
     e( 12 - 12) =     12.53870  eV     1   --> A_2  D_2  S_2  
     e( 13 - 13) =     12.61366  eV     1   --> B_2  D_4  S_4  
     e( 14 - 14) =     12.64581  eV     1   --> A_1  D_1  S_1  
     e( 15 - 15) =     12.78015  eV     1   --> B_1  D_3  S_3  
     e( 16 - 16) =     12.98196  eV     1   --> A_1  D_1  S_1  

 **************************************************************************

 **************************************************************************

                    xk=(  -0.32000,   0.55426,   0.00000  )

     Band symmetry, C_2v (mm2)  point group:

     e(  1 -  1) =    -15.28734  eV     1   --> A_1  D_1  S_1  
     e(  2 -  2) =    -14.68245  eV     1   --> B_2  D_4  S_4  
     e(  3 -  3) =    -12.83890  eV     1   --> A_1  D_1  S_1  
     e(  4 -  4) =     -2.74191  eV     1   --> B_1  D_3  S_3  
     e(  5 -  5) =     -1.96960  eV     1   --> A_2  D_2  S_2  
     e(  6 -  6) =      8.28252  eV     1   --> B_1  D_3  S_3  
     e(  7 -  7) =     10.17835  eV     1   --> A_1  D_1  S_1  
     e(  8 -  8) =     10.60744  eV     1   --> B_2  D_4  S_4  
     e(  9 -  9) =     11.07756  eV     1   --> A_1  D_1  S_1  
     e( 10 - 10) =     11.62330  eV     1   --> A_1  D_1  S_1  
     e( 11 - 11) =     11.63105  eV     1   --> B_1  D_3  S_3  
     e( 12 - 12) =     12.63724  eV     1   --> B_1  D_3  S_3  
     e( 13 - 13) =     12.70598  eV     1   --> A_1  D_1  S_1  
     e( 14 - 14) =     12.76805  eV     1   --> A_2  D_2  S_2  
     e( 15 - 15) =     12.81849  eV     1   --> B_2  D_4  S_4  
     e( 16 - 16) =     12.89919  eV     1   --> A_1  D_1  S_1  

 **************************************************************************

 **************************************************************************

                    xk=(  -0.31333,   0.54271,   0.00000  )

     Band symmetry, C_2v (mm2)  point group:

     e(  1 -  1) =    -15.48457  eV     1   --> A_1  D_1  S_1  
     e(  2 -  2) =    -14.53601  eV     1   --> B_2  D_4  S_4  
     e(  3 -  3) =    -12.75592  eV     1   --> A_1  D_1  S_1  
     e(  4 -  4) =     -2.94769  eV     1   --> B_1  D_3  S_3  
     e(  5 -  5) =     -1.76753  eV     1   --> A_2  D_2  S_2  
     e(  6 -  6) =      8.30920  eV     1   --> B_1  D_3  S_3  
     e(  7 -  7) =      9.90822  eV     1   --> A_1  D_1  S_1  
     e(  8 -  8) =     10.63366  eV     1   --> B_2  D_4  S_4  
     e(  9 -  9) =     11.03499  eV     1   --> A_1  D_1  S_1  
     e( 10 - 10) =     11.23912  eV     1   --> A_1  D_1  S_1  
     e( 11 - 11) =     11.25384  eV     1   --> B_1  D_3  S_3  
     e( 12 - 12) =     12.31892  eV     1   --> B_1  D_3  S_3  
     e( 13 - 13) =     12.42646  eV     1   --> A_1  D_1  S_1  
     e( 14 - 14) =     13.00589  eV     1   --> A_2  D_2  S_2  
     e( 15 - 15) =     13.02500  eV     1   --> B_2  D_4  S_4  
     e( 16 - 16) =     13.08325  eV     1   --> A_1  D_1  S_1  

 **************************************************************************

 **************************************************************************

                    xk=(  -0.30667,   0.53116,   0.00000  )

     Band symmetry, C_2v (mm2)  point group:

     e(  1 -  1) =    -15.69513  eV     1   --> A_1  D_1  S_1  
     e(  2 -  2) =    -14.38446  eV     1   --> B_2  D_4  S_4  
     e(  3 -  3) =    -12.65154  eV     1   --> A_1  D_1  S_1  
     e(  4 -  4) =     -3.15994  eV     1   --> B_1  D_3  S_3  
     e(  5 -  5) =     -1.55894  eV     1   --> A_2  D_2  S_2  
     e(  6 -  6) =      8.33980  eV     1   --> B_1  D_3  S_3  
     e(  7 -  7) =      9.60278  eV     1   --> A_1  D_1  S_1  
     e(  8 -  8) =     10.64296  eV     1   --> B_2  D_4  S_4  
     e(  9 -  9) =     10.78756  eV     1   --> A_1  D_1  S_1  
     e( 10 - 10) =     10.88405  eV     1   --> B_1  D_3  S_3  
     e( 11 - 11) =     11.04197  eV     1   --> A_1  D_1  S_1  
     e( 12 - 12) =     11.97358  eV     1   --> B_1  D_3  S_3  
     e( 13 - 13) =     12.09096  eV     1   --> A_1  D_1  S_1  
     e( 14 - 14) =     13.23296  eV     1   --> B_2  D_4  S_4  
     e( 15 - 15) =     13.25221  eV     1   --> A_2  D_2  S_2  
     e( 16 - 16) =     13.28528  eV     1   --> A_1  D_1  S_1  

 **************************************************************************

 **************************************************************************

                    xk=(  -0.30000,   0.51962,   0.00000  )

     Band symmetry, C_2v (mm2)  point group:

     e(  1 -  1) =    -15.91420  eV     1   --> A_1  D_1  S_1  
     e(  2 -  2) =    -14.22784  eV     1   --> B_2  D_4  S_4  
     e(  3 -  3) =    -12.53043  eV     1   --> A_1  D_1  S_1  
     e(  4 -  4) =     -3.37763  eV     1   --> B_1  D_3  S_3  
     e(  5 -  5) =     -1.34394  eV     1   --> A_2  D_2  S_2  
     e(  6 -  6) =      8.36766  eV     1   --> B_1  D_3  S_3  
     e(  7 -  7) =      9.27849  eV     1   --> A_1  D_1  S_1  
     e(  8 -  8) =     10.40783  eV     1   --> A_1  D_1  S_1  
     e(  9 -  9) =     10.52736  eV     1   --> B_1  D_3  S_3  
     e( 10 - 10) =     10.63623  eV     1   --> B_2  D_4  S_4  
     e( 11 - 11) =     10.95488  eV     1   --> A_1  D_1  S_1  
     e( 12 - 12) =     11.63162  eV     1   --> B_1  D_3  S_3  
     e( 13 - 13) =     11.74129  eV     1   --> A_1  D_1  S_1  
     e( 14 - 14) =     13.44346  eV     1   --> B_2  D_4  S_4  
     e( 15 - 15) =     13.47122  eV     1   --> A_1  D_1  S_1  
     e( 16 - 16) =     13.48090  eV     1   --> B_1  D_3  S_3  

 **************************************************************************

 **************************************************************************

                    xk=(  -0.29333,   0.50807,   0.00000  )

     Band symmetry, C_2v (mm2)  point group:

     e(  1 -  1) =    -16.13827  eV     1   --> A_1  D_1  S_1  
     e(  2 -  2) =    -14.06616  eV     1   --> B_2  D_4  S_4  
     e(  3 -  3) =    -12.39597  eV     1   --> A_1  D_1  S_1  
     e(  4 -  4) =     -3.59976  eV     1   --> B_1  D_3  S_3  
     e(  5 -  5) =     -1.12264  eV     1   --> A_2  D_2  S_2  
     e(  6 -  6) =      8.38293  eV     1   --> B_1  D_3  S_3  
     e(  7 -  7) =      8.94505  eV     1   --> A_1  D_1  S_1  
     e(  8 -  8) =     10.02597  eV     1   --> A_1  D_1  S_1  
     e(  9 -  9) =     10.18892  eV     1   --> B_1  D_3  S_3  
     e( 10 - 10) =     10.61500  eV     1   --> B_2  D_4  S_4  
     e( 11 - 11) =     10.84537  eV     1   --> A_1  D_1  S_1  
     e( 12 - 12) =     11.30393  eV     1   --> B_1  D_3  S_3  
     e( 13 - 13) =     11.39256  eV     1   --> A_1  D_1  S_1  
     e( 14 - 14) =     13.22421  eV     1   --> B_1  D_3  S_3  
     e( 15 - 15) =     13.45429  eV     1   --> A_1  D_1  S_1  
     e( 16 - 16) =     13.65855  eV     1   --> B_2  D_4  S_4  

 **************************************************************************

 **************************************************************************

                    xk=(  -0.28667,   0.49652,   0.00000  )

     Band symmetry, C_2v (mm2)  point group:

     e(  1 -  1) =    -16.36486  eV     1   --> A_1  D_1  S_1  
     e(  2 -  2) =    -13.89949  eV     1   --> B_2  D_4  S_4  
     e(  3 -  3) =    -12.25058  eV     1   --> A_1  D_1  S_1  
     e(  4 -  4) =     -3.82537  eV     1   --> B_1  D_3  S_3  
     e(  5 -  5) =     -0.89519  eV     1   --> A_2  D_2  S_2  
     e(  6 -  6) =      8.37154  eV     1   --> B_1  D_3  S_3  
     e(  7 -  7) =      8.60827  eV     1   --> A_1  D_1  S_1  
     e(  8 -  8) =      9.65007  eV     1   --> A_1  D_1  S_1  
     e(  9 -  9) =      9.87453  eV     1   --> B_1  D_3  S_3  
     e( 10 - 10) =     10.58109  eV     1   --> B_2  D_4  S_4  
     e( 11 - 11) =     10.69961  eV     1   --> A_1  D_1  S_1  
     e( 12 - 12) =     10.99933  eV     1   --> B_1  D_3  S_3  
     e( 13 - 13) =     11.05900  eV     1   --> A_1  D_1  S_1  
     e( 14 - 14) =     12.92059  eV     1   --> B_1  D_3  S_3  
     e( 15 - 15) =     13.18117  eV     1   --> A_1  D_1  S_1  
     e( 16 - 16) =     13.88038  eV     1   --> B_2  D_4  S_4  

 **************************************************************************

 **************************************************************************

                    xk=(  -0.28000,   0.48497,   0.00000  )

     Band symmetry, C_2v (mm2)  point group:

     e(  1 -  1) =    -16.59210  eV     1   --> A_1  D_1  S_1  
     e(  2 -  2) =    -13.72786  eV     1   --> B_2  D_4  S_4  
     e(  3 -  3) =    -12.09603  eV     1   --> A_1  D_1  S_1  
     e(  4 -  4) =     -4.05351  eV     1   --> B_1  D_3  S_3  
     e(  5 -  5) =     -0.66172  eV     1   --> A_2  D_2  S_2  
     e(  6 -  6) =      8.27175  eV     1   --> A_1  D_1  S_1  
     e(  7 -  7) =      8.31581  eV     1   --> B_1  D_3  S_3  
     e(  8 -  8) =      9.28158  eV     1   --> A_1  D_1  S_1  
     e(  9 -  9) =      9.58940  eV     1   --> B_1  D_3  S_3  
     e( 10 - 10) =     10.49531  eV     1   --> A_1  D_1  S_1  
     e( 11 - 11) =     10.53640  eV     1   --> B_2  D_4  S_4  
     e( 12 - 12) =     10.72807  eV     1   --> B_1  D_3  S_3  
     e( 13 - 13) =     10.76828  eV     1   --> A_1  D_1  S_1  
     e( 14 - 14) =     12.61572  eV     1   --> B_1  D_3  S_3  
     e( 15 - 15) =     12.86442  eV     1   --> A_1  D_1  S_1  
     e( 16 - 16) =     14.11043  eV     1   --> B_2  D_4  S_4  

 **************************************************************************

 **************************************************************************

                    xk=(  -0.27333,   0.47343,   0.00000  )

     Band symmetry, C_2v (mm2)  point group:

     e(  1 -  1) =    -16.81871  eV     1   --> A_1  D_1  S_1  
     e(  2 -  2) =    -13.55134  eV     1   --> B_2  D_4  S_4  
     e(  3 -  3) =    -11.93364  eV     1   --> A_1  D_1  S_1  
     e(  4 -  4) =     -4.28332  eV     1   --> B_1  D_3  S_3  
     e(  5 -  5) =     -0.42238  eV     1   --> A_2  D_2  S_2  
     e(  6 -  6) =      7.93781  eV     1   --> A_1  D_1  S_1  
     e(  7 -  7) =      8.20031  eV     1   --> B_1  D_3  S_3  
     e(  8 -  8) =      8.92103  eV     1   --> A_1  D_1  S_1  
     e(  9 -  9) =      9.33283  eV     1   --> B_1  D_3  S_3  
     e( 10 - 10) =     10.21643  eV     1   --> A_1  D_1  S_1  
     e( 11 - 11) =     10.48275  eV     1   --> B_2  D_4  S_4  
     e( 12 - 12) =     10.50157  eV     1   --> B_1  D_3  S_3  
     e( 13 - 13) =     10.54161  eV     1   --> A_1  D_1  S_1  
     e( 14 - 14) =     12.32386  eV     1   --> B_1  D_3  S_3  
     e( 15 - 15) =     12.53855  eV     1   --> A_1  D_1  S_1  
     e( 16 - 16) =     14.34927  eV     1   --> B_2  D_4  S_4  

 **************************************************************************

 **************************************************************************

                    xk=(  -0.26667,   0.46188,   0.00000  )

     Band symmetry, C_2v (mm2)  point group:

     e(  1 -  1) =    -17.04366  eV     1   --> A_1  D_1  S_1  
     e(  2 -  2) =    -13.36999  eV     1   --> B_2  D_4  S_4  
     e(  3 -  3) =    -11.76441  eV     1   --> A_1  D_1  S_1  
     e(  4 -  4) =     -4.51398  eV     1   --> B_1  D_3  S_3  
     e(  5 -  5) =     -0.17737  eV     1   --> A_2  D_2  S_2  
     e(  6 -  6) =      7.60801  eV     1   --> A_1  D_1  S_1  
     e(  7 -  7) =      8.02254  eV     1   --> B_1  D_3  S_3  
     e(  8 -  8) =      8.56868  eV     1   --> A_1  D_1  S_1  
     e(  9 -  9) =      9.09252  eV     1   --> B_1  D_3  S_3  
     e( 10 - 10) =      9.89987  eV     1   --> A_1  D_1  S_1  
     e( 11 - 11) =     10.32691  eV     1   --> B_1  D_3  S_3  
     e( 12 - 12) =     10.34661  eV     1   --> A_1  D_1  S_1  
     e( 13 - 13) =     10.42175  eV     1   --> B_2  D_4  S_4  
     e( 14 - 14) =     12.05524  eV     1   --> B_1  D_3  S_3  
     e( 15 - 15) =     12.21212  eV     1   --> A_1  D_1  S_1  
     e( 16 - 16) =     14.59666  eV     1   --> B_2  D_4  S_4  

 **************************************************************************

 **************************************************************************

                    xk=(  -0.26000,   0.45033,   0.00000  )

     Band symmetry, C_2v (mm2)  point group:

     e(  1 -  1) =    -17.26619  eV     1   --> A_1  D_1  S_1  
     e(  2 -  2) =    -13.18383  eV     1   --> B_2  D_4  S_4  
     e(  3 -  3) =    -11.58914  eV     1   --> A_1  D_1  S_1  
     e(  4 -  4) =     -4.74472  eV     1   --> B_1  D_3  S_3  
     e(  5 -  5) =      0.07318  eV     1   --> A_2  D_2  S_2  
     e(  6 -  6) =      7.28340  eV     1   --> A_1  D_1  S_1  
     e(  7 -  7) =      7.79549  eV     1   --> B_1  D_3  S_3  
     e(  8 -  8) =      8.22469  eV     1   --> A_1  D_1  S_1  
     e(  9 -  9) =      8.85064  eV     1   --> B_1  D_3  S_3  
     e( 10 - 10) =      9.57537  eV     1   --> A_1  D_1  S_1  
     e( 11 - 11) =     10.15734  eV     1   --> A_1  D_1  S_1  
     e( 12 - 12) =     10.19716  eV     1   --> B_1  D_3  S_3  
     e( 13 - 13) =     10.35480  eV     1   --> B_2  D_4  S_4  
     e( 14 - 14) =     11.82142  eV     1   --> B_1  D_3  S_3  
     e( 15 - 15) =     11.88873  eV     1   --> A_1  D_1  S_1  
     e( 16 - 16) =     14.45278  eV     1   --> B_1  D_3  S_3  

 **************************************************************************

 **************************************************************************

                    xk=(  -0.25333,   0.43879,   0.00000  )

     Band symmetry, C_2v (mm2)  point group:

     e(  1 -  1) =    -17.48567  eV     1   --> A_1  D_1  S_1  
     e(  2 -  2) =    -12.99297  eV     1   --> B_2  D_4  S_4  
     e(  3 -  3) =    -11.40849  eV     1   --> A_1  D_1  S_1  
     e(  4 -  4) =     -4.97484  eV     1   --> B_1  D_3  S_3  
     e(  5 -  5) =      0.32904  eV     1   --> A_2  D_2  S_2  
     e(  6 -  6) =      6.96476  eV     1   --> A_1  D_1  S_1  
     e(  7 -  7) =      7.53743  eV     1   --> B_1  D_3  S_3  
     e(  8 -  8) =      7.88915  eV     1   --> A_1  D_1  S_1  
     e(  9 -  9) =      8.59723  eV     1   --> B_1  D_3  S_3  
     e( 10 - 10) =      9.25271  eV     1   --> A_1  D_1  S_1  
     e( 11 - 11) =      9.96715  eV     1   --> A_1  D_1  S_1  
     e( 12 - 12) =     10.08828  eV     1   --> B_1  D_3  S_3  
     e( 13 - 13) =     10.28308  eV     1   --> B_2  D_4  S_4  
     e( 14 - 14) =     11.57024  eV     1   --> A_1  D_1  S_1  
     e( 15 - 15) =     11.63621  eV     1   --> B_1  D_3  S_3  
     e( 16 - 16) =     14.19637  eV     1   --> B_1  D_3  S_3  

 **************************************************************************

 **************************************************************************

                    xk=(  -0.24667,   0.42724,   0.00000  )

     Band symmetry, C_2v (mm2)  point group:

     e(  1 -  1) =    -17.70167  eV     1   --> A_1  D_1  S_1  
     e(  2 -  2) =    -12.79747  eV     1   --> B_2  D_4  S_4  
     e(  3 -  3) =    -11.22302  eV     1   --> A_1  D_1  S_1  
     e(  4 -  4) =     -5.20368  eV     1   --> B_1  D_3  S_3  
     e(  5 -  5) =      0.59001  eV     1   --> A_2  D_2  S_2  
     e(  6 -  6) =      6.65263  eV     1   --> A_1  D_1  S_1  
     e(  7 -  7) =      7.26301  eV     1   --> B_1  D_3  S_3  
     e(  8 -  8) =      7.56213  eV     1   --> A_1  D_1  S_1  
     e(  9 -  9) =      8.33241  eV     1   --> B_1  D_3  S_3  
     e( 10 - 10) =      8.93522  eV     1   --> A_1  D_1  S_1  
     e( 11 - 11) =      9.77524  eV     1   --> A_1  D_1  S_1  
     e( 12 - 12) =      9.96981  eV     1   --> B_1  D_3  S_3  
     e( 13 - 13) =     10.20755  eV     1   --> B_2  D_4  S_4  
     e( 14 - 14) =     11.25778  eV     1   --> A_1  D_1  S_1  
     e( 15 - 15) =     11.51170  eV     1   --> B_1  D_3  S_3  
     e( 16 - 16) =     13.94528  eV     1   --> B_1  D_3  S_3  

 **************************************************************************

 **************************************************************************

                    xk=(  -0.24000,   0.41569,   0.00000  )

     Band symmetry, C_2v (mm2)  point group:

     e(  1 -  1) =    -17.91379  eV     1   --> A_1  D_1  S_1  
     e(  2 -  2) =    -12.59744  eV     1   --> B_2  D_4  S_4  
     e(  3 -  3) =    -11.03325  eV     1   --> A_1  D_1  S_1  
     e(  4 -  4) =     -5.43067  eV     1   --> B_1  D_3  S_3  
     e(  5 -  5) =      0.85586  eV     1   --> A_2  D_2  S_2  
     e(  6 -  6) =      6.34743  eV     1   --> A_1  D_1  S_1  
     e(  7 -  7) =      6.98162  eV     1   --> B_1  D_3  S_3  
     e(  8 -  8) =      7.24368  eV     1   --> A_1  D_1  S_1  
     e(  9 -  9) =      8.06050  eV     1   --> B_1  D_3  S_3  
     e( 10 - 10) =      8.62433  eV     1   --> A_1  D_1  S_1  
     e( 11 - 11) =      9.58225  eV     1   --> A_1  D_1  S_1  
     e( 12 - 12) =      9.82087  eV     1   --> B_1  D_3  S_3  
     e( 13 - 13) =     10.12896  eV     1   --> B_2  D_4  S_4  
     e( 14 - 14) =     10.95207  eV     1   --> A_1  D_1  S_1  
     e( 15 - 15) =     11.44916  eV     1   --> B_1  D_3  S_3  
     e( 16 - 16) =     13.71179  eV     1   --> B_1  D_3  S_3  

 **************************************************************************

 **************************************************************************

                    xk=(  -0.23333,   0.40415,   0.00000  )

     Band symmetry, C_2v (mm2)  point group:

     e(  1 -  1) =    -18.12169  eV     1   --> A_1  D_1  S_1  
     e(  2 -  2) =    -12.39295  eV     1   --> B_2  D_4  S_4  
     e(  3 -  3) =    -10.83959  eV     1   --> A_1  D_1  S_1  
     e(  4 -  4) =     -5.65524  eV     1   --> B_1  D_3  S_3  
     e(  5 -  5) =      1.12633  eV     1   --> A_2  D_2  S_2  
     e(  6 -  6) =      6.04948  eV     1   --> A_1  D_1  S_1  
     e(  7 -  7) =      6.69888  eV     1   --> B_1  D_3  S_3  
     e(  8 -  8) =      6.93383  eV     1   --> A_1  D_1  S_1  
     e(  9 -  9) =      7.78591  eV     1   --> B_1  D_3  S_3  
     e( 10 - 10) =      8.32073  eV     1   --> A_1  D_1  S_1  
     e( 11 - 11) =      9.38918  eV     1   --> A_1  D_1  S_1  
     e( 12 - 12) =      9.63776  eV     1   --> B_1  D_3  S_3  
     e( 13 - 13) =     10.04796  eV     1   --> B_2  D_4  S_4  
     e( 14 - 14) =     10.65359  eV     1   --> A_1  D_1  S_1  
     e( 15 - 15) =     11.43324  eV     1   --> B_1  D_3  S_3  
     e( 16 - 16) =     13.50689  eV     1   --> B_1  D_3  S_3  

 **************************************************************************

 **************************************************************************

                    xk=(  -0.22667,   0.39260,   0.00000  )

     Band symmetry, C_2v (mm2)  point group:

     e(  1 -  1) =    -18.32511  eV     1   --> A_1  D_1  S_1  
     e(  2 -  2) =    -12.18411  eV     1   --> B_2  D_4  S_4  
     e(  3 -  3) =    -10.64249  eV     1   --> A_1  D_1  S_1  
     e(  4 -  4) =     -5.87691  eV     1   --> B_1  D_3  S_3  
     e(  5 -  5) =      1.40116  eV     1   --> A_2  D_2  S_2  
     e(  6 -  6) =      5.75901  eV     1   --> A_1  D_1  S_1  
     e(  7 -  7) =      6.41817  eV     1   --> B_1  D_3  S_3  
     e(  8 -  8) =      6.63262  eV     1   --> A_1  D_1  S_1  
     e(  9 -  9) =      7.51195  eV     1   --> B_1  D_3  S_3  
     e( 10 - 10) =      8.02484  eV     1   --> A_1  D_1  S_1  
     e( 11 - 11) =      9.19702  eV     1   --> A_1  D_1  S_1  
     e( 12 - 12) =      9.42814  eV     1   --> B_1  D_3  S_3  
     e( 13 - 13) =      9.96501  eV     1   --> B_2  D_4  S_4  
     e( 14 - 14) =     10.36272  eV     1   --> A_1  D_1  S_1  
     e( 15 - 15) =     11.43655  eV     1   --> B_1  D_3  S_3  
     e( 16 - 16) =     13.34366  eV     1   --> B_1  D_3  S_3  

 **************************************************************************

 **************************************************************************

                    xk=(  -0.22000,   0.38105,   0.00000  )

     Band symmetry, C_2v (mm2)  point group:

     e(  1 -  1) =    -18.52386  eV     1   --> A_1  D_1  S_1  
     e(  2 -  2) =    -11.97105  eV     1   --> B_2  D_4  S_4  
     e(  3 -  3) =    -10.44235  eV     1   --> A_1  D_1  S_1  
     e(  4 -  4) =     -6.09524  eV     1   --> B_1  D_3  S_3  
     e(  5 -  5) =      1.68005  eV     1   --> A_2  D_2  S_2  
     e(  6 -  6) =      5.47621  eV     1   --> A_1  D_1  S_1  
     e(  7 -  7) =      6.14155  eV     1   --> B_1  D_3  S_3  
     e(  8 -  8) =      6.34006  eV     1   --> A_1  D_1  S_1  
     e(  9 -  9) =      7.24092  eV     1   --> B_1  D_3  S_3  
     e( 10 - 10) =      7.73692  eV     1   --> A_1  D_1  S_1  
     e( 11 - 11) =      9.00661  eV     1   --> A_1  D_1  S_1  
     e( 12 - 12) =      9.20203  eV     1   --> B_1  D_3  S_3  
     e( 13 - 13) =      9.88047  eV     1   --> B_2  D_4  S_4  
     e( 14 - 14) =     10.07970  eV     1   --> A_1  D_1  S_1  
     e( 15 - 15) =     11.42878  eV     1   --> B_1  D_3  S_3  
     e( 16 - 16) =     13.14188  eV     1   --> A_1  D_1  S_1  

 **************************************************************************

 **************************************************************************

                    xk=(  -0.21333,   0.36950,   0.00000  )

     Band symmetry, C_2v (mm2)  point group:

     e(  1 -  1) =    -18.71774  eV     1   --> A_1  D_1  S_1  
     e(  2 -  2) =    -11.75388  eV     1   --> B_2  D_4  S_4  
     e(  3 -  3) =    -10.23955  eV     1   --> A_1  D_1  S_1  
     e(  4 -  4) =     -6.30982  eV     1   --> B_1  D_3  S_3  
     e(  5 -  5) =      1.96269  eV     1   --> A_2  D_2  S_2  
     e(  6 -  6) =      5.20124  eV     1   --> A_1  D_1  S_1  
     e(  7 -  7) =      5.87035  eV     1   --> B_1  D_3  S_3  
     e(  8 -  8) =      6.05617  eV     1   --> A_1  D_1  S_1  
     e(  9 -  9) =      6.97439  eV     1   --> B_1  D_3  S_3  
     e( 10 - 10) =      7.45713  eV     1   --> A_1  D_1  S_1  
     e( 11 - 11) =      8.81877  eV     1   --> A_1  D_1  S_1  
     e( 12 - 12) =      8.96740  eV     1   --> B_1  D_3  S_3  
     e( 13 - 13) =      9.79460  eV     1   --> B_2  D_4  S_4  
     e( 14 - 14) =      9.80476  eV     1   --> A_1  D_1  S_1  
     e( 15 - 15) =     11.38574  eV     1   --> B_1  D_3  S_3  
     e( 16 - 16) =     12.87268  eV     1   --> A_1  D_1  S_1  

 **************************************************************************

 **************************************************************************

                    xk=(  -0.20667,   0.35796,   0.00000  )

     Band symmetry, C_2v (mm2)  point group:

     e(  1 -  1) =    -18.90657  eV     1   --> A_1  D_1  S_1  
     e(  2 -  2) =    -11.53276  eV     1   --> B_2  D_4  S_4  
     e(  3 -  3) =    -10.03452  eV     1   --> A_1  D_1  S_1  
     e(  4 -  4) =     -6.52027  eV     1   --> B_1  D_3  S_3  
     e(  5 -  5) =      2.24872  eV     1   --> A_2  D_2  S_2  
     e(  6 -  6) =      4.93422  eV     1   --> A_1  D_1  S_1  
     e(  7 -  7) =      5.60545  eV     1   --> B_1  D_3  S_3  
     e(  8 -  8) =      5.78096  eV     1   --> A_1  D_1  S_1  
     e(  9 -  9) =      6.71344  eV     1   --> B_1  D_3  S_3  
     e( 10 - 10) =      7.18559  eV     1   --> A_1  D_1  S_1  
     e( 11 - 11) =      8.63412  eV     1   --> A_1  D_1  S_1  
     e( 12 - 12) =      8.72970  eV     1   --> B_1  D_3  S_3  
     e( 13 - 13) =      9.53807  eV     1   --> A_1  D_1  S_1  
     e( 14 - 14) =      9.70754  eV     1   --> B_2  D_4  S_4  
     e( 15 - 15) =     11.29726  eV     1   --> B_1  D_3  S_3  
     e( 16 - 16) =     12.61041  eV     1   --> A_1  D_1  S_1  

 **************************************************************************

 **************************************************************************

                    xk=(  -0.20000,   0.34641,   0.00000  )

     Band symmetry, C_2v (mm2)  point group:

     e(  1 -  1) =    -19.09021  eV     1   --> A_1  D_1  S_1  
     e(  2 -  2) =    -11.30785  eV     1   --> B_2  D_4  S_4  
     e(  3 -  3) =     -9.82765  eV     1   --> A_1  D_1  S_1  
     e(  4 -  4) =     -6.72625  eV     1   --> B_1  D_3  S_3  
     e(  5 -  5) =      2.53777  eV     1   --> A_2  D_2  S_2  
     e(  6 -  6) =      4.67525  eV     1   --> A_1  D_1  S_1  
     e(  7 -  7) =      5.34744  eV     1   --> B_1  D_3  S_3  
     e(  8 -  8) =      5.51444  eV     1   --> A_1  D_1  S_1  
     e(  9 -  9) =      6.45881  eV     1   --> B_1  D_3  S_3  
     e( 10 - 10) =      6.92240  eV     1   --> A_1  D_1  S_1  
     e( 11 - 11) =      8.45321  eV     1   --> A_1  D_1  S_1  
     e( 12 - 12) =      8.49252  eV     1   --> B_1  D_3  S_3  
     e( 13 - 13) =      9.27977  eV     1   --> A_1  D_1  S_1  
     e( 14 - 14) =      9.61934  eV     1   --> B_2  D_4  S_4  
     e( 15 - 15) =     11.16798  eV     1   --> B_1  D_3  S_3  
     e( 16 - 16) =     12.35541  eV     1   --> A_1  D_1  S_1  

 **************************************************************************

 **************************************************************************

                    xk=(  -0.19333,   0.33486,   0.00000  )

     Band symmetry, C_2v (mm2)  point group:

     e(  1 -  1) =    -19.26855  eV     1   --> A_1  D_1  S_1  
     e(  2 -  2) =    -11.07933  eV     1   --> B_2  D_4  S_4  
     e(  3 -  3) =     -9.61934  eV     1   --> A_1  D_1  S_1  
     e(  4 -  4) =     -6.92747  eV     1   --> B_1  D_3  S_3  
     e(  5 -  5) =      2.82943  eV     1   --> A_2  D_2  S_2  
     e(  6 -  6) =      4.42441  eV     1   --> A_1  D_1  S_1  
     e(  7 -  7) =      5.09675  eV     1   --> B_1  D_3  S_3  
     e(  8 -  8) =      5.25663  eV     1   --> A_1  D_1  S_1  
     e(  9 -  9) =      6.21103  eV     1   --> B_1  D_3  S_3  
     e( 10 - 10) =      6.66761  eV     1   --> A_1  D_1  S_1  
     e( 11 - 11) =      8.25819  eV     1   --> B_1  D_3  S_3  
     e( 12 - 12) =      8.27653  eV     1   --> A_1  D_1  S_1  
     e( 13 - 13) =      9.03000  eV     1   --> A_1  D_1  S_1  
     e( 14 - 14) =      9.53002  eV     1   --> B_2  D_4  S_4  
     e( 15 - 15) =     11.00951  eV     1   --> B_1  D_3  S_3  
     e( 16 - 16) =     12.10793  eV     1   --> A_1  D_1  S_1  

 **************************************************************************

 **************************************************************************

                    xk=(  -0.18667,   0.32332,   0.00000  )

     Band symmetry, C_2v (mm2)  point group:

     e(  1 -  1) =    -19.44150  eV     1   --> A_1  D_1  S_1  
     e(  2 -  2) =    -10.84741  eV     1   --> B_2  D_4  S_4  
     e(  3 -  3) =     -9.41004  eV     1   --> A_1  D_1  S_1  
     e(  4 -  4) =     -7.12364  eV     1   --> B_1  D_3  S_3  
     e(  5 -  5) =      3.12326  eV     1   --> A_2  D_2  S_2  
     e(  6 -  6) =      4.18176  eV     1   --> A_1  D_1  S_1  
     e(  7 -  7) =      4.85367  eV     1   --> B_1  D_3  S_3  
     e(  8 -  8) =      5.00753  eV     1   --> A_1  D_1  S_1  
     e(  9 -  9) =      5.97050  eV     1   --> B_1  D_3  S_3  
     e( 10 - 10) =      6.42129  eV     1   --> A_1  D_1  S_1  
     e( 11 - 11) =      8.02826  eV     1   --> B_1  D_3  S_3  
     e( 12 - 12) =      8.10441  eV     1   --> A_1  D_1  S_1  
     e( 13 - 13) =      8.78890  eV     1   --> A_1  D_1  S_1  
     e( 14 - 14) =      9.43943  eV     1   --> B_2  D_4  S_4  
     e( 15 - 15) =     10.83318  eV     1   --> B_1  D_3  S_3  
     e( 16 - 16) =     11.86816  eV     1   --> A_1  D_1  S_1  

 **************************************************************************

 **************************************************************************

                    xk=(  -0.18000,   0.31177,   0.00000  )

     Band symmetry, C_2v (mm2)  point group:

     e(  1 -  1) =    -19.60893  eV     1   --> A_1  D_1  S_1  
     e(  2 -  2) =    -10.61230  eV     1   --> B_2  D_4  S_4  
     e(  3 -  3) =     -9.20017  eV     1   --> A_1  D_1  S_1  
     e(  4 -  4) =     -7.31452  eV     1   --> B_1  D_3  S_3  
     e(  5 -  5) =      3.41878  eV     1   --> A_2  D_2  S_2  
     e(  6 -  6) =      3.94738  eV     1   --> A_1  D_1  S_1  
     e(  7 -  7) =      4.61842  eV     1   --> B_1  D_3  S_3  
     e(  8 -  8) =      4.76714  eV     1   --> A_1  D_1  S_1  
     e(  9 -  9) =      5.73751  eV     1   --> B_1  D_3  S_3  
     e( 10 - 10) =      6.18346  eV     1   --> A_1  D_1  S_1  
     e( 11 - 11) =      7.80380  eV     1   --> B_1  D_3  S_3  
     e( 12 - 12) =      7.93717  eV     1   --> A_1  D_1  S_1  
     e( 13 - 13) =      8.55660  eV     1   --> A_1  D_1  S_1  
     e( 14 - 14) =      9.34743  eV     1   --> B_2  D_4  S_4  
     e( 15 - 15) =     10.64738  eV     1   --> B_1  D_3  S_3  
     e( 16 - 16) =     11.63624  eV     1   --> A_1  D_1  S_1  

 **************************************************************************

 **************************************************************************

                    xk=(  -0.17333,   0.30022,   0.00000  )

     Band symmetry, C_2v (mm2)  point group:

     e(  1 -  1) =    -19.77077  eV     1   --> A_1  D_1  S_1  
     e(  2 -  2) =    -10.37427  eV     1   --> B_2  D_4  S_4  
     e(  3 -  3) =     -8.99021  eV     1   --> A_1  D_1  S_1  
     e(  4 -  4) =     -7.49987  eV     1   --> B_1  D_3  S_3  
     e(  5 -  5) =      3.71546  eV     1   --> A_2  D_2  S_2  
     e(  6 -  6) =      3.72130  eV     1   --> A_1  D_1  S_1  
     e(  7 -  7) =      4.39119  eV     1   --> B_1  D_3  S_3  
     e(  8 -  8) =      4.53548  eV     1   --> A_1  D_1  S_1  
     e(  9 -  9) =      5.51227  eV     1   --> B_1  D_3  S_3  
     e( 10 - 10) =      5.95417  eV     1   --> A_1  D_1  S_1  
     e( 11 - 11) =      7.58555  eV     1   --> B_1  D_3  S_3  
     e( 12 - 12) =      7.77502  eV     1   --> A_1  D_1  S_1  
     e( 13 - 13) =      8.33328  eV     1   --> A_1  D_1  S_1  
     e( 14 - 14) =      9.25372  eV     1   --> B_2  D_4  S_4  
     e( 15 - 15) =     10.45776  eV     1   --> B_1  D_3  S_3  
     e( 16 - 16) =     11.41229  eV     1   --> A_1  D_1  S_1  

 **************************************************************************

 **************************************************************************

                    xk=(  -0.16667,   0.28868,   0.00000  )

     Band symmetry, C_2v (mm2)  point group:

     e(  1 -  1) =    -19.92694  eV     1   --> A_1  D_1  S_1  
     e(  2 -  2) =    -10.13362  eV     1   --> B_2  D_4  S_4  
     e(  3 -  3) =     -8.78064  eV     1   --> A_1  D_1  S_1  
     e(  4 -  4) =     -7.67949  eV     1   --> B_1  D_3  S_3  
     e(  5 -  5) =      3.50356  eV     1   --> A_1  D_1  S_1  
     e(  6 -  6) =      4.01274  eV     1   --> A_2  D_2  S_2  
     e(  7 -  7) =      4.17209  eV     1   --> B_1  D_3  S_3  
     e(  8 -  8) =      4.31254  eV     1   --> A_1  D_1  S_1  
     e(  9 -  9) =      5.29495  eV     1   --> B_1  D_3  S_3  
     e( 10 - 10) =      5.73344  eV     1   --> A_1  D_1  S_1  
     e( 11 - 11) =      7.37405  eV     1   --> B_1  D_3  S_3  
     e( 12 - 12) =      7.61807  eV     1   --> A_1  D_1  S_1  
     e( 13 - 13) =      8.11912  eV     1   --> A_1  D_1  S_1  
     e( 14 - 14) =      9.15793  eV     1   --> B_2  D_4  S_4  
     e( 15 - 15) =     10.26801  eV     1   --> B_1  D_3  S_3  
     e( 16 - 16) =     11.19638  eV     1   --> A_1  D_1  S_1  

 **************************************************************************

 **************************************************************************

                    xk=(  -0.16000,   0.27713,   0.00000  )

     Band symmetry, C_2v (mm2)  point group:

     e(  1 -  1) =    -20.07740  eV     1   --> A_1  D_1  S_1  
     e(  2 -  2) =     -9.89062  eV     1   --> B_2  D_4  S_4  
     e(  3 -  3) =     -8.57195  eV     1   --> A_1  D_1  S_1  
     e(  4 -  4) =     -7.85320  eV     1   --> B_1  D_3  S_3  
     e(  5 -  5) =      3.29421  eV     1   --> A_1  D_1  S_1  
     e(  6 -  6) =      3.96123  eV     1   --> B_1  D_3  S_3  
     e(  7 -  7) =      4.09833  eV     1   --> A_1  D_1  S_1  
     e(  8 -  8) =      4.31001  eV     1   --> A_2  D_2  S_2  
     e(  9 -  9) =      5.08570  eV     1   --> B_1  D_3  S_3  
     e( 10 - 10) =      5.52129  eV     1   --> A_1  D_1  S_1  
     e( 11 - 11) =      7.16969  eV     1   --> B_1  D_3  S_3  
     e( 12 - 12) =      7.46637  eV     1   --> A_1  D_1  S_1  
     e( 13 - 13) =      7.91437  eV     1   --> A_1  D_1  S_1  
     e( 14 - 14) =      9.05963  eV     1   --> B_2  D_4  S_4  
     e( 15 - 15) =     10.08058  eV     1   --> B_1  D_3  S_3  
     e( 16 - 16) =     10.98861  eV     1   --> A_1  D_1  S_1  

 **************************************************************************

 **************************************************************************

                    xk=(  -0.15333,   0.26558,   0.00000  )

     Band symmetry, C_2v (mm2)  point group:

     e(  1 -  1) =    -20.22205  eV     1   --> A_1  D_1  S_1  
     e(  2 -  2) =     -9.64566  eV     1   --> B_2  D_4  S_4  
     e(  3 -  3) =     -8.36466  eV     1   --> A_1  D_1  S_1  
     e(  4 -  4) =     -8.02081  eV     1   --> B_1  D_3  S_3  
     e(  5 -  5) =      3.09328  eV     1   --> A_1  D_1  S_1  
     e(  6 -  6) =      3.75868  eV     1   --> B_1  D_3  S_3  
     e(  7 -  7) =      3.89286  eV     1   --> A_1  D_1  S_1  
     e(  8 -  8) =      4.60661  eV     1   --> A_2  D_2  S_2  
     e(  9 -  9) =      4.88460  eV     1   --> B_1  D_3  S_3  
     e( 10 - 10) =      5.31774  eV     1   --> A_1  D_1  S_1  
     e( 11 - 11) =      6.97277  eV     1   --> B_1  D_3  S_3  
     e( 12 - 12) =      7.31983  eV     1   --> A_1  D_1  S_1  
     e( 13 - 13) =      7.71936  eV     1   --> A_1  D_1  S_1  
     e( 14 - 14) =      8.95827  eV     1   --> B_2  D_4  S_4  
     e( 15 - 15) =      9.89712  eV     1   --> B_1  D_3  S_3  
     e( 16 - 16) =     10.78901  eV     1   --> A_1  D_1  S_1  

 **************************************************************************

 **************************************************************************

                    xk=(  -0.14667,   0.25403,   0.00000  )

     Band symmetry, C_2v (mm2)  point group:

     e(  1 -  1) =    -20.36085  eV     1   --> A_1  D_1  S_1  
     e(  2 -  2) =     -9.39913  eV     1   --> B_2  D_4  S_4  
     e(  3 -  3) =     -8.18218  eV     1   --> B_1  D_3  S_3  
     e(  4 -  4) =     -8.15932  eV     1   --> A_1  D_1  S_1  
     e(  5 -  5) =      2.90078  eV     1   --> A_1  D_1  S_1  
     e(  6 -  6) =      3.56452  eV     1   --> B_1  D_3  S_3  
     e(  7 -  7) =      3.69612  eV     1   --> A_1  D_1  S_1  
     e(  8 -  8) =      4.69175  eV     1   --> B_1  D_3  S_3  
     e(  9 -  9) =      4.90182  eV     1   --> A_2  D_2  S_2  
     e( 10 - 10) =      5.12281  eV     1   --> A_1  D_1  S_1  
     e( 11 - 11) =      6.78351  eV     1   --> B_1  D_3  S_3  
     e( 12 - 12) =      7.17824  eV     1   --> A_1  D_1  S_1  
     e( 13 - 13) =      7.53451  eV     1   --> A_1  D_1  S_1  
     e( 14 - 14) =      8.85319  eV     1   --> B_2  D_4  S_4  
     e( 15 - 15) =      9.71876  eV     1   --> B_1  D_3  S_3  
     e( 16 - 16) =     10.59763  eV     1   --> A_1  D_1  S_1  

 **************************************************************************

 **************************************************************************

                    xk=(  -0.14000,   0.24249,   0.00000  )

     Band symmetry, C_2v (mm2)  point group:

     e(  1 -  1) =    -20.49376  eV     1   --> A_1  D_1  S_1  
     e(  2 -  2) =     -9.15150  eV     1   --> B_2  D_4  S_4  
     e(  3 -  3) =     -8.33716  eV     1   --> B_1  D_3  S_3  
     e(  4 -  4) =     -7.95651  eV     1   --> A_1  D_1  S_1  
     e(  5 -  5) =      2.71674  eV     1   --> A_1  D_1  S_1  
     e(  6 -  6) =      3.37879  eV     1   --> B_1  D_3  S_3  
     e(  7 -  7) =      3.50812  eV     1   --> A_1  D_1  S_1  
     e(  8 -  8) =      4.50721  eV     1   --> B_1  D_3  S_3  
     e(  9 -  9) =      4.93651  eV     1   --> A_1  D_1  S_1  
     e( 10 - 10) =      5.19489  eV     1   --> A_2  D_2  S_2  
     e( 11 - 11) =      6.60208  eV     1   --> B_1  D_3  S_3  
     e( 12 - 12) =      7.04116  eV     1   --> A_1  D_1  S_1  
     e( 13 - 13) =      7.36036  eV     1   --> A_1  D_1  S_1  
     e( 14 - 14) =      8.74360  eV     1   --> B_2  D_4  S_4  
     e( 15 - 15) =      9.54630  eV     1   --> B_1  D_3  S_3  
     e( 16 - 16) =     10.41453  eV     1   --> A_1  D_1  S_1  

 **************************************************************************

 **************************************************************************

                    xk=(  -0.13333,   0.23094,   0.00000  )

     Band symmetry, C_2v (mm2)  point group:

     e(  1 -  1) =    -20.62072  eV     1   --> A_1  D_1  S_1  
     e(  2 -  2) =     -8.90326  eV     1   --> B_2  D_4  S_4  
     e(  3 -  3) =     -8.48563  eV     1   --> B_1  D_3  S_3  
     e(  4 -  4) =     -7.75682  eV     1   --> A_1  D_1  S_1  
     e(  5 -  5) =      2.54119  eV     1   --> A_1  D_1  S_1  
     e(  6 -  6) =      3.20154  eV     1   --> B_1  D_3  S_3  
     e(  7 -  7) =      3.32886  eV     1   --> A_1  D_1  S_1  
     e(  8 -  8) =      4.33104  eV     1   --> B_1  D_3  S_3  
     e(  9 -  9) =      4.75884  eV     1   --> A_1  D_1  S_1  
     e( 10 - 10) =      5.48498  eV     1   --> A_2  D_2  S_2  
     e( 11 - 11) =      6.42863  eV     1   --> B_1  D_3  S_3  
     e( 12 - 12) =      6.90810  eV     1   --> A_1  D_1  S_1  
     e( 13 - 13) =      7.19760  eV     1   --> A_1  D_1  S_1  
     e( 14 - 14) =      8.62873  eV     1   --> B_2  D_4  S_4  
     e( 15 - 15) =      9.38032  eV     1   --> B_1  D_3  S_3  
     e( 16 - 16) =     10.23972  eV     1   --> A_1  D_1  S_1  

 **************************************************************************

 **************************************************************************

                    xk=(  -0.12667,   0.21939,   0.00000  )

     Band symmetry, C_2v (mm2)  point group:

     e(  1 -  1) =    -20.74171  eV     1   --> A_1  D_1  S_1  
     e(  2 -  2) =     -8.65500  eV     1   --> B_2  D_4  S_4  
     e(  3 -  3) =     -8.62746  eV     1   --> B_1  D_3  S_3  
     e(  4 -  4) =     -7.56086  eV     1   --> A_1  D_1  S_1  
     e(  5 -  5) =      2.37414  eV     1   --> A_1  D_1  S_1  
     e(  6 -  6) =      3.03281  eV     1   --> B_1  D_3  S_3  
     e(  7 -  7) =      3.15834  eV     1   --> A_1  D_1  S_1  
     e(  8 -  8) =      4.16329  eV     1   --> B_1  D_3  S_3  
     e(  9 -  9) =      4.58982  eV     1   --> A_1  D_1  S_1  
     e( 10 - 10) =      5.77122  eV     1   --> A_2  D_2  S_2  
     e( 11 - 11) =      6.26327  eV     1   --> B_1  D_3  S_3  
     e( 12 - 12) =      6.77840  eV     1   --> A_1  D_1  S_1  
     e( 13 - 13) =      7.04694  eV     1   --> A_1  D_1  S_1  
     e( 14 - 14) =      8.50767  eV     1   --> B_2  D_4  S_4  
     e( 15 - 15) =      9.22125  eV     1   --> B_1  D_3  S_3  
     e( 16 - 16) =     10.07324  eV     1   --> A_1  D_1  S_1  

 **************************************************************************

 **************************************************************************

                    xk=(  -0.12000,   0.20785,   0.00000  )

     Band symmetry, C_2v (mm2)  point group:

     e(  1 -  1) =    -20.85668  eV     1   --> A_1  D_1  S_1  
     e(  2 -  2) =     -8.76256  eV     1   --> B_1  D_3  S_3  
     e(  3 -  3) =     -8.40734  eV     1   --> B_2  D_4  S_4  
     e(  4 -  4) =     -7.36928  eV     1   --> A_1  D_1  S_1  
     e(  5 -  5) =      2.21560  eV     1   --> A_1  D_1  S_1  
     e(  6 -  6) =      2.87261  eV     1   --> B_1  D_3  S_3  
     e(  7 -  7) =      2.99656  eV     1   --> A_1  D_1  S_1  
     e(  8 -  8) =      4.00399  eV     1   --> B_1  D_3  S_3  
     e(  9 -  9) =      4.42946  eV     1   --> A_1  D_1  S_1  
     e( 10 - 10) =      6.05268  eV     1   --> A_2  D_2  S_2  
     e( 11 - 11) =      6.10608  eV     1   --> B_1  D_3  S_3  
     e( 12 - 12) =      6.65157  eV     1   --> A_1  D_1  S_1  
     e( 13 - 13) =      6.90897  eV     1   --> A_1  D_1  S_1  
     e( 14 - 14) =      8.37957  eV     1   --> B_2  D_4  S_4  
     e( 15 - 15) =      9.06941  eV     1   --> B_1  D_3  S_3  
     e( 16 - 16) =      9.91510  eV     1   --> A_1  D_1  S_1  

 **************************************************************************

 **************************************************************************

                    xk=(  -0.11333,   0.19630,   0.00000  )

     Band symmetry, C_2v (mm2)  point group:

     e(  1 -  1) =    -20.96559  eV     1   --> A_1  D_1  S_1  
     e(  2 -  2) =     -8.89081  eV     1   --> B_1  D_3  S_3  
     e(  3 -  3) =     -8.16103  eV     1   --> B_2  D_4  S_4  
     e(  4 -  4) =     -7.18273  eV     1   --> A_1  D_1  S_1  
     e(  5 -  5) =      2.06559  eV     1   --> A_1  D_1  S_1  
     e(  6 -  6) =      2.72098  eV     1   --> B_1  D_3  S_3  
     e(  7 -  7) =      2.84353  eV     1   --> A_1  D_1  S_1  
     e(  8 -  8) =      3.85318  eV     1   --> B_1  D_3  S_3  
     e(  9 -  9) =      4.27776  eV     1   --> A_1  D_1  S_1  
     e( 10 - 10) =      5.95714  eV     1   --> B_1  D_3  S_3  
     e( 11 - 11) =      6.32836  eV     1   --> A_2  D_2  S_2  
     e( 12 - 12) =      6.52748  eV     1   --> A_1  D_1  S_1  
     e( 13 - 13) =      6.78384  eV     1   --> A_1  D_1  S_1  
     e( 14 - 14) =      8.24363  eV     1   --> B_2  D_4  S_4  
     e( 15 - 15) =      8.92506  eV     1   --> B_1  D_3  S_3  
     e( 16 - 16) =      9.76534  eV     1   --> A_1  D_1  S_1  

 **************************************************************************

 **************************************************************************

                    xk=(  -0.10667,   0.18475,   0.00000  )

     Band symmetry, C_2v (mm2)  point group:

     e(  1 -  1) =    -21.06841  eV     1   --> A_1  D_1  S_1  
     e(  2 -  2) =     -9.01214  eV     1   --> B_1  D_3  S_3  
     e(  3 -  3) =     -7.91689  eV     1   --> B_2  D_4  S_4  
     e(  4 -  4) =     -7.00187  eV     1   --> A_1  D_1  S_1  
     e(  5 -  5) =      1.92413  eV     1   --> A_1  D_1  S_1  
     e(  6 -  6) =      2.57794  eV     1   --> B_1  D_3  S_3  
     e(  7 -  7) =      2.69924  eV     1   --> A_1  D_1  S_1  
     e(  8 -  8) =      3.71089  eV     1   --> B_1  D_3  S_3  
     e(  9 -  9) =      4.13472  eV     1   --> A_1  D_1  S_1  
     e( 10 - 10) =      5.81650  eV     1   --> B_1  D_3  S_3  
     e( 11 - 11) =      6.40652  eV     1   --> A_1  D_1  S_1  
     e( 12 - 12) =      6.59723  eV     1   --> A_2  D_2  S_2  
     e( 13 - 13) =      6.67116  eV     1   --> A_1  D_1  S_1  
     e( 14 - 14) =      8.09932  eV     1   --> B_2  D_4  S_4  
     e( 15 - 15) =      8.78839  eV     1   --> B_1  D_3  S_3  
     e( 16 - 16) =      9.62396  eV     1   --> A_1  D_1  S_1  

 **************************************************************************

 **************************************************************************

                    xk=(  -0.10000,   0.17321,   0.00000  )

     Band symmetry, C_2v (mm2)  point group:

     e(  1 -  1) =    -21.16512  eV     1   --> A_1  D_1  S_1  
     e(  2 -  2) =     -9.12647  eV     1   --> B_1  D_3  S_3  
     e(  3 -  3) =     -7.67582  eV     1   --> B_2  D_4  S_4  
     e(  4 -  4) =     -6.82739  eV     1   --> A_1  D_1  S_1  
     e(  5 -  5) =      1.79121  eV     1   --> A_1  D_1  S_1  
     e(  6 -  6) =      2.44351  eV     1   --> B_1  D_3  S_3  
     e(  7 -  7) =      2.56370  eV     1   --> A_1  D_1  S_1  
     e(  8 -  8) =      3.57714  eV     1   --> B_1  D_3  S_3  
     e(  9 -  9) =      4.00036  eV     1   --> A_1  D_1  S_1  
     e( 10 - 10) =      5.68422  eV     1   --> B_1  D_3  S_3  
     e( 11 - 11) =      6.28952  eV     1   --> A_1  D_1  S_1  
     e( 12 - 12) =      6.57009  eV     1   --> A_1  D_1  S_1  
     e( 13 - 13) =      6.85818  eV     1   --> A_2  D_2  S_2  
     e( 14 - 14) =      7.94641  eV     1   --> B_2  D_4  S_4  
     e( 15 - 15) =      8.65955  eV     1   --> B_1  D_3  S_3  
     e( 16 - 16) =      9.49099  eV     1   --> A_1  D_1  S_1  

 **************************************************************************

 **************************************************************************

                    xk=(  -0.09333,   0.16166,   0.00000  )

     Band symmetry, C_2v (mm2)  point group:

     e(  1 -  1) =    -21.25571  eV     1   --> A_1  D_1  S_1  
     e(  2 -  2) =     -9.23372  eV     1   --> B_1  D_3  S_3  
     e(  3 -  3) =     -7.43887  eV     1   --> B_2  D_4  S_4  
     e(  4 -  4) =     -6.65999  eV     1   --> A_1  D_1  S_1  
     e(  5 -  5) =      1.66684  eV     1   --> A_1  D_1  S_1  
     e(  6 -  6) =      2.31769  eV     1   --> B_1  D_3  S_3  
     e(  7 -  7) =      2.43691  eV     1   --> A_1  D_1  S_1  
     e(  8 -  8) =      3.45195  eV     1   --> B_1  D_3  S_3  
     e(  9 -  9) =      3.87466  eV     1   --> A_1  D_1  S_1  
     e( 10 - 10) =      5.56033  eV     1   --> B_1  D_3  S_3  
     e( 11 - 11) =      6.17743  eV     1   --> A_1  D_1  S_1  
     e( 12 - 12) =      6.47957  eV     1   --> A_1  D_1  S_1  
     e( 13 - 13) =      7.11007  eV     1   --> A_2  D_2  S_2  
     e( 14 - 14) =      7.78515  eV     1   --> B_2  D_4  S_4  
     e( 15 - 15) =      8.53866  eV     1   --> B_1  D_3  S_3  
     e( 16 - 16) =      9.36644  eV     1   --> A_1  D_1  S_1  

 **************************************************************************

 **************************************************************************

                    xk=(  -0.08667,   0.15011,   0.00000  )

     Band symmetry, C_2v (mm2)  point group:

     e(  1 -  1) =    -21.34014  eV     1   --> A_1  D_1  S_1  
     e(  2 -  2) =     -9.33383  eV     1   --> B_1  D_3  S_3  
     e(  3 -  3) =     -7.20719  eV     1   --> B_2  D_4  S_4  
     e(  4 -  4) =     -6.50036  eV     1   --> A_1  D_1  S_1  
     e(  5 -  5) =      1.55105  eV     1   --> A_1  D_1  S_1  
     e(  6 -  6) =      2.20051  eV     1   --> B_1  D_3  S_3  
     e(  7 -  7) =      2.31886  eV     1   --> A_1  D_1  S_1  
     e(  8 -  8) =      3.33533  eV     1   --> B_1  D_3  S_3  
     e(  9 -  9) =      3.75764  eV     1   --> A_1  D_1  S_1  
     e( 10 - 10) =      5.44488  eV     1   --> B_1  D_3  S_3  
     e( 11 - 11) =      6.07114  eV     1   --> A_1  D_1  S_1  
     e( 12 - 12) =      6.39864  eV     1   --> A_1  D_1  S_1  
     e( 13 - 13) =      7.35172  eV     1   --> A_2  D_2  S_2  
     e( 14 - 14) =      7.61641  eV     1   --> B_2  D_4  S_4  
     e( 15 - 15) =      8.42582  eV     1   --> B_1  D_3  S_3  
     e( 16 - 16) =      9.25033  eV     1   --> A_1  D_1  S_1  

 **************************************************************************

 **************************************************************************

                    xk=(  -0.08000,   0.13856,   0.00000  )

     Band symmetry, C_2v (mm2)  point group:

     e(  1 -  1) =    -21.41838  eV     1   --> A_1  D_1  S_1  
     e(  2 -  2) =     -9.42674  eV     1   --> B_1  D_3  S_3  
     e(  3 -  3) =     -6.98207  eV     1   --> B_2  D_4  S_4  
     e(  4 -  4) =     -6.34917  eV     1   --> A_1  D_1  S_1  
     e(  5 -  5) =      1.44382  eV     1   --> A_1  D_1  S_1  
     e(  6 -  6) =      2.09198  eV     1   --> B_1  D_3  S_3  
     e(  7 -  7) =      2.20956  eV     1   --> A_1  D_1  S_1  
     e(  8 -  8) =      3.22730  eV     1   --> B_1  D_3  S_3  
     e(  9 -  9) =      3.64930  eV     1   --> A_1  D_1  S_1  
     e( 10 - 10) =      5.33789  eV     1   --> B_1  D_3  S_3  
     e( 11 - 11) =      5.97138  eV     1   --> A_1  D_1  S_1  
     e( 12 - 12) =      6.32643  eV     1   --> A_1  D_1  S_1  
     e( 13 - 13) =      7.44170  eV     1   --> B_2  D_4  S_4  
     e( 14 - 14) =      7.58195  eV     1   --> A_2  D_2  S_2  
     e( 15 - 15) =      8.32111  eV     1   --> B_1  D_3  S_3  
     e( 16 - 16) =      9.14268  eV     1   --> A_1  D_1  S_1  

 **************************************************************************

 **************************************************************************

                    xk=(  -0.07333,   0.12702,   0.00000  )

     Band symmetry, C_2v (mm2)  point group:

     e(  1 -  1) =    -21.49043  eV     1   --> A_1  D_1  S_1  
     e(  2 -  2) =     -9.51240  eV     1   --> B_1  D_3  S_3  
     e(  3 -  3) =     -6.76493  eV     1   --> B_2  D_4  S_4  
     e(  4 -  4) =     -6.20712  eV     1   --> A_1  D_1  S_1  
     e(  5 -  5) =      1.34516  eV     1   --> A_1  D_1  S_1  
     e(  6 -  6) =      1.99209  eV     1   --> B_1  D_3  S_3  
     e(  7 -  7) =      2.10901  eV     1   --> A_1  D_1  S_1  
     e(  8 -  8) =      3.12788  eV     1   --> B_1  D_3  S_3  
     e(  9 -  9) =      3.54963  eV     1   --> A_1  D_1  S_1  
     e( 10 - 10) =      5.23939  eV     1   --> B_1  D_3  S_3  
     e( 11 - 11) =      5.87865  eV     1   --> A_1  D_1  S_1  
     e( 12 - 12) =      6.26227  eV     1   --> A_1  D_1  S_1  
     e( 13 - 13) =      7.26324  eV     1   --> B_2  D_4  S_4  
     e( 14 - 14) =      7.79953  eV     1   --> A_2  D_2  S_2  
     e( 15 - 15) =      8.22460  eV     1   --> B_1  D_3  S_3  
     e( 16 - 16) =      9.04351  eV     1   --> A_1  D_1  S_1  

 **************************************************************************

 **************************************************************************

                    xk=(  -0.06667,   0.11547,   0.00000  )

     Band symmetry, C_2v (mm2)  point group:

     e(  1 -  1) =    -21.55627  eV     1   --> A_1  D_1  S_1  
     e(  2 -  2) =     -9.59076  eV     1   --> B_1  D_3  S_3  
     e(  3 -  3) =     -6.55735  eV     1   --> B_2  D_4  S_4  
     e(  4 -  4) =     -6.07486  eV     1   --> A_1  D_1  S_1  
     e(  5 -  5) =      1.25509  eV     1   --> A_1  D_1  S_1  
     e(  6 -  6) =      1.90087  eV     1   --> B_1  D_3  S_3  
     e(  7 -  7) =      2.01720  eV     1   --> A_1  D_1  S_1  
     e(  8 -  8) =      3.03707  eV     1   --> B_1  D_3  S_3  
     e(  9 -  9) =      3.45864  eV     1   --> A_1  D_1  S_1  
     e( 10 - 10) =      5.14939  eV     1   --> B_1  D_3  S_3  
     e( 11 - 11) =      5.79334  eV     1   --> A_1  D_1  S_1  
     e( 12 - 12) =      6.20557  eV     1   --> A_1  D_1  S_1  
     e( 13 - 13) =      7.08375  eV     1   --> B_2  D_4  S_4  
     e( 14 - 14) =      8.00324  eV     1   --> A_2  D_2  S_2  
     e( 15 - 15) =      8.13634  eV     1   --> B_1  D_3  S_3  
     e( 16 - 16) =      8.95285  eV     1   --> A_1  D_1  S_1  

 **************************************************************************

 **************************************************************************

                    xk=(  -0.06000,   0.10392,   0.00000  )

     Band symmetry, C_2v (mm2)  point group:

     e(  1 -  1) =    -21.61587  eV     1   --> A_1  D_1  S_1  
     e(  2 -  2) =     -9.66178  eV     1   --> B_1  D_3  S_3  
     e(  3 -  3) =     -6.36102  eV     1   --> B_2  D_4  S_4  
     e(  4 -  4) =     -5.95303  eV     1   --> A_1  D_1  S_1  
     e(  5 -  5) =      1.17359  eV     1   --> A_1  D_1  S_1  
     e(  6 -  6) =      1.81832  eV     1   --> B_1  D_3  S_3  
     e(  7 -  7) =      1.93414  eV     1   --> A_1  D_1  S_1  
     e(  8 -  8) =      2.95488  eV     1   --> B_1  D_3  S_3  
     e(  9 -  9) =      3.37632  eV     1   --> A_1  D_1  S_1  
     e( 10 - 10) =      5.06792  eV     1   --> B_1  D_3  S_3  
     e( 11 - 11) =      5.71571  eV     1   --> A_1  D_1  S_1  
     e( 12 - 12) =      6.15585  eV     1   --> A_1  D_1  S_1  
     e( 13 - 13) =      6.90646  eV     1   --> B_2  D_4  S_4  
     e( 14 - 14) =      8.05638  eV     1   --> B_1  D_3  S_3  
     e( 15 - 15) =      8.19189  eV     1   --> A_2  D_2  S_2  
     e( 16 - 16) =      8.87070  eV     1   --> A_1  D_1  S_1  

 **************************************************************************

 **************************************************************************

                    xk=(  -0.05333,   0.09238,   0.00000  )

     Band symmetry, C_2v (mm2)  point group:

     e(  1 -  1) =    -21.66924  eV     1   --> A_1  D_1  S_1  
     e(  2 -  2) =     -9.72542  eV     1   --> B_1  D_3  S_3  
     e(  3 -  3) =     -6.17778  eV     1   --> B_2  D_4  S_4  
     e(  4 -  4) =     -5.84223  eV     1   --> A_1  D_1  S_1  
     e(  5 -  5) =      1.10067  eV     1   --> A_1  D_1  S_1  
     e(  6 -  6) =      1.74445  eV     1   --> B_1  D_3  S_3  
     e(  7 -  7) =      1.85982  eV     1   --> A_1  D_1  S_1  
     e(  8 -  8) =      2.88133  eV     1   --> B_1  D_3  S_3  
     e(  9 -  9) =      3.30267  eV     1   --> A_1  D_1  S_1  
     e( 10 - 10) =      4.99499  eV     1   --> B_1  D_3  S_3  
     e( 11 - 11) =      5.64596  eV     1   --> A_1  D_1  S_1  
     e( 12 - 12) =      6.11264  eV     1   --> A_1  D_1  S_1  
     e( 13 - 13) =      6.73482  eV     1   --> B_2  D_4  S_4  
     e( 14 - 14) =      7.98475  eV     1   --> B_1  D_3  S_3  
     e( 15 - 15) =      8.36432  eV     1   --> A_2  D_2  S_2  
     e( 16 - 16) =      8.79711  eV     1   --> A_1  D_1  S_1  

 **************************************************************************

 **************************************************************************

                    xk=(  -0.04667,   0.08083,   0.00000  )

     Band symmetry, C_2v (mm2)  point group:

     e(  1 -  1) =    -21.71636  eV     1   --> A_1  D_1  S_1  
     e(  2 -  2) =     -9.78164  eV     1   --> B_1  D_3  S_3  
     e(  3 -  3) =     -6.00956  eV     1   --> B_2  D_4  S_4  
     e(  4 -  4) =     -5.74303  eV     1   --> A_1  D_1  S_1  
     e(  5 -  5) =      1.03634  eV     1   --> A_1  D_1  S_1  
     e(  6 -  6) =      1.67925  eV     1   --> B_1  D_3  S_3  
     e(  7 -  7) =      1.79426  eV     1   --> A_1  D_1  S_1  
     e(  8 -  8) =      2.81641  eV     1   --> B_1  D_3  S_3  
     e(  9 -  9) =      3.23770  eV     1   --> A_1  D_1  S_1  
     e( 10 - 10) =      4.93061  eV     1   --> B_1  D_3  S_3  
     e( 11 - 11) =      5.58421  eV     1   --> A_1  D_1  S_1  
     e( 12 - 12) =      6.07558  eV     1   --> A_1  D_1  S_1  
     e( 13 - 13) =      6.57243  eV     1   --> B_2  D_4  S_4  
     e( 14 - 14) =      7.92149  eV     1   --> B_1  D_3  S_3  
     e( 15 - 15) =      8.51941  eV     1   --> A_2  D_2  S_2  
     e( 16 - 16) =      8.73208  eV     1   --> A_1  D_1  S_1  

 **************************************************************************

 **************************************************************************

                    xk=(  -0.04000,   0.06928,   0.00000  )

     Band symmetry, C_2v (mm2)  point group:

     e(  1 -  1) =    -21.75721  eV     1   --> A_1  D_1  S_1  
     e(  2 -  2) =     -9.83042  eV     1   --> B_1  D_3  S_3  
     e(  3 -  3) =     -5.85833  eV     1   --> B_2  D_4  S_4  
     e(  4 -  4) =     -5.65594  eV     1   --> A_1  D_1  S_1  
     e(  5 -  5) =      0.98059  eV     1   --> A_1  D_1  S_1  
     e(  6 -  6) =      1.62274  eV     1   --> B_1  D_3  S_3  
     e(  7 -  7) =      1.73743  eV     1   --> A_1  D_1  S_1  
     e(  8 -  8) =      2.76014  eV     1   --> B_1  D_3  S_3  
     e(  9 -  9) =      3.18139  eV     1   --> A_1  D_1  S_1  
     e( 10 - 10) =      4.87479  eV     1   --> B_1  D_3  S_3  
     e( 11 - 11) =      5.53057  eV     1   --> A_1  D_1  S_1  
     e( 12 - 12) =      6.04429  eV     1   --> A_1  D_1  S_1  
     e( 13 - 13) =      6.42288  eV     1   --> B_2  D_4  S_4  
     e( 14 - 14) =      7.86661  eV     1   --> B_1  D_3  S_3  
     e( 15 - 15) =      8.65613  eV     1   --> A_2  D_2  S_2  
     e( 16 - 16) =      8.67566  eV     1   --> A_1  D_1  S_1  

 **************************************************************************

 **************************************************************************

                    xk=(  -0.03333,   0.05774,   0.00000  )

     Band symmetry, C_2v (mm2)  point group:

     e(  1 -  1) =    -21.79178  eV     1   --> A_1  D_1  S_1  
     e(  2 -  2) =     -9.87174  eV     1   --> B_1  D_3  S_3  
     e(  3 -  3) =     -5.72609  eV     1   --> B_2  D_4  S_4  
     e(  4 -  4) =     -5.58142  eV     1   --> A_1  D_1  S_1  
     e(  5 -  5) =      0.93341  eV     1   --> A_1  D_1  S_1  
     e(  6 -  6) =      1.57492  eV     1   --> B_1  D_3  S_3  
     e(  7 -  7) =      1.68935  eV     1   --> A_1  D_1  S_1  
     e(  8 -  8) =      2.71252  eV     1   --> B_1  D_3  S_3  
     e(  9 -  9) =      3.13375  eV     1   --> A_1  D_1  S_1  
     e( 10 - 10) =      4.82755  eV     1   --> B_1  D_3  S_3  
     e( 11 - 11) =      5.48509  eV     1   --> A_1  D_1  S_1  
     e( 12 - 12) =      6.01845  eV     1   --> A_1  D_1  S_1  
     e( 13 - 13) =      6.28960  eV     1   --> B_2  D_4  S_4  
     e( 14 - 14) =      7.82015  eV     1   --> B_1  D_3  S_3  
     e( 15 - 15) =      8.62787  eV     1   --> A_1  D_1  S_1  
     e( 16 - 16) =      8.77354  eV     1   --> A_2  D_2  S_2  

 **************************************************************************

 **************************************************************************

                    xk=(  -0.02667,   0.04619,   0.00000  )

     Band symmetry, C_2v (mm2)  point group:

     e(  1 -  1) =    -21.82008  eV     1   --> A_1  D_1  S_1  
     e(  2 -  2) =     -9.90557  eV     1   --> B_1  D_3  S_3  
     e(  3 -  3) =     -5.61474  eV     1   --> B_2  D_4  S_4  
     e(  4 -  4) =     -5.51989  eV     1   --> A_1  D_1  S_1  
     e(  5 -  5) =      0.89482  eV     1   --> A_1  D_1  S_1  
     e(  6 -  6) =      1.53579  eV     1   --> B_1  D_3  S_3  
     e(  7 -  7) =      1.65001  eV     1   --> A_1  D_1  S_1  
     e(  8 -  8) =      2.67356  eV     1   --> B_1  D_3  S_3  
     e(  9 -  9) =      3.09478  eV     1   --> A_1  D_1  S_1  
     e( 10 - 10) =      4.78889  eV     1   --> B_1  D_3  S_3  
     e( 11 - 11) =      5.44783  eV     1   --> A_1  D_1  S_1  
     e( 12 - 12) =      5.99776  eV     1   --> A_1  D_1  S_1  
     e( 13 - 13) =      6.17574  eV     1   --> B_2  D_4  S_4  
     e( 14 - 14) =      7.78211  eV     1   --> B_1  D_3  S_3  
     e( 15 - 15) =      8.58872  eV     1   --> A_1  D_1  S_1  
     e( 16 - 16) =      8.87080  eV     1   --> A_2  D_2  S_2  

 **************************************************************************

 **************************************************************************

                    xk=(  -0.02000,   0.03464,   0.00000  )

     Band symmetry, C_2v (mm2)  point group:

     e(  1 -  1) =    -21.84210  eV     1   --> A_1  D_1  S_1  
     e(  2 -  2) =     -9.93190  eV     1   --> B_1  D_3  S_3  
     e(  3 -  3) =     -5.52606  eV     1   --> B_2  D_4  S_4  
     e(  4 -  4) =     -5.47166  eV     1   --> A_1  D_1  S_1  
     e(  5 -  5) =      0.86480  eV     1   --> A_1  D_1  S_1  
     e(  6 -  6) =      1.50535  eV     1   --> B_1  D_3  S_3  
     e(  7 -  7) =      1.61942  eV     1   --> A_1  D_1  S_1  
     e(  8 -  8) =      2.64324  eV     1   --> B_1  D_3  S_3  
     e(  9 -  9) =      3.06447  eV     1   --> A_1  D_1  S_1  
     e( 10 - 10) =      4.75882  eV     1   --> B_1  D_3  S_3  
     e( 11 - 11) =      5.41881  eV     1   --> A_1  D_1  S_1  
     e( 12 - 12) =      5.98195  eV     1   --> A_1  D_1  S_1  
     e( 13 - 13) =      6.08406  eV     1   --> B_2  D_4  S_4  
     e( 14 - 14) =      7.75251  eV     1   --> B_1  D_3  S_3  
     e( 15 - 15) =      8.55825  eV     1   --> A_1  D_1  S_1  
     e( 16 - 16) =      8.94721  eV     1   --> A_2  D_2  S_2  

 **************************************************************************

 **************************************************************************

                    xk=(  -0.01333,   0.02309,   0.00000  )

     Band symmetry, C_2v (mm2)  point group:

     e(  1 -  1) =    -21.85783  eV     1   --> A_1  D_1  S_1  
     e(  2 -  2) =     -9.95072  eV     1   --> B_1  D_3  S_3  
     e(  3 -  3) =     -5.46155  eV     1   --> B_2  D_4  S_4  
     e(  4 -  4) =     -5.43702  eV     1   --> A_1  D_1  S_1  
     e(  5 -  5) =      0.84336  eV     1   --> A_1  D_1  S_1  
     e(  6 -  6) =      1.48360  eV     1   --> B_1  D_3  S_3  
     e(  7 -  7) =      1.59756  eV     1   --> A_1  D_1  S_1  
     e(  8 -  8) =      2.62159  eV     1   --> B_1  D_3  S_3  
     e(  9 -  9) =      3.04282  eV     1   --> A_1  D_1  S_1  
     e( 10 - 10) =      4.73733  eV     1   --> B_1  D_3  S_3  
     e( 11 - 11) =      5.39808  eV     1   --> A_1  D_1  S_1  
     e( 12 - 12) =      5.97082  eV     1   --> A_1  D_1  S_1  
     e( 13 - 13) =      6.01684  eV     1   --> B_2  D_4  S_4  
     e( 14 - 14) =      7.73137  eV     1   --> B_1  D_3  S_3  
     e( 15 - 15) =      8.53647  eV     1   --> A_1  D_1  S_1  
     e( 16 - 16) =      9.00221  eV     1   --> A_2  D_2  S_2  

 **************************************************************************

 **************************************************************************

                    xk=(  -0.00667,   0.01155,   0.00000  )

     Band symmetry, C_2v (mm2)  point group:

     e(  1 -  1) =    -21.86727  eV     1   --> A_1  D_1  S_1  
     e(  2 -  2) =     -9.96201  eV     1   --> B_1  D_3  S_3  
     e(  3 -  3) =     -5.42235  eV     1   --> B_2  D_4  S_4  
     e(  4 -  4) =     -5.41617  eV     1   --> A_1  D_1  S_1  
     e(  5 -  5) =      0.83050  eV     1   --> A_1  D_1  S_1  
     e(  6 -  6) =      1.47056  eV     1   --> B_1  D_3  S_3  
     e(  7 -  7) =      1.58445  eV     1   --> A_1  D_1  S_1  
     e(  8 -  8) =      2.60860  eV     1   --> B_1  D_3  S_3  
     e(  9 -  9) =      3.02983  eV     1   --> A_1  D_1  S_1  
     e( 10 - 10) =      4.72444  eV     1   --> B_1  D_3  S_3  
     e( 11 - 11) =      5.38563  eV     1   --> A_1  D_1  S_1  
     e( 12 - 12) =      5.96420  eV     1   --> A_1  D_1  S_1  
     e( 13 - 13) =      5.97580  eV     1   --> B_2  D_4  S_4  
     e( 14 - 14) =      7.71867  eV     1   --> B_1  D_3  S_3  
     e( 15 - 15) =      8.52339  eV     1   --> A_1  D_1  S_1  
     e( 16 - 16) =      9.03537  eV     1   --> A_2  D_2  S_2  

 **************************************************************************

 **************************************************************************

                    xk=(   0.00000,   0.00000,   0.00000  )

     point group D_6h(6/mmm)
     there are 12 classes
     the character table:

       E     2C6   2C3   C2    3C2'  3C2'' i     2S3   2S6   s_h   3s_d  3s_v 
A_1g   1.00  1.00  1.00  1.00  1.00  1.00  1.00  1.00  1.00  1.00  1.00  1.00
A_2g   1.00  1.00  1.00  1.00 -1.00 -1.00  1.00  1.00  1.00  1.00 -1.00 -1.00
B_1g   1.00 -1.00  1.00 -1.00  1.00 -1.00  1.00 -1.00  1.00 -1.00  1.00 -1.00
B_2g   1.00 -1.00  1.00 -1.00 -1.00  1.00  1.00 -1.00  1.00 -1.00 -1.00  1.00
E_1g   2.00  1.00 -1.00 -2.00  0.00  0.00  2.00  1.00 -1.00 -2.00  0.00  0.00
E_2g   2.00 -1.00 -1.00  2.00  0.00  0.00  2.00 -1.00 -1.00  2.00  0.00  0.00
A_1u   1.00  1.00  1.00  1.00  1.00  1.00 -1.00 -1.00 -1.00 -1.00 -1.00 -1.00
A_2u   1.00  1.00  1.00  1.00 -1.00 -1.00 -1.00 -1.00 -1.00 -1.00  1.00  1.00
B_1u   1.00 -1.00  1.00 -1.00  1.00 -1.00 -1.00  1.00 -1.00  1.00 -1.00  1.00
B_2u   1.00 -1.00  1.00 -1.00 -1.00  1.00 -1.00  1.00 -1.00  1.00  1.00 -1.00
E_1u   2.00  1.00 -1.00 -2.00  0.00  0.00 -2.00 -1.00  1.00  2.00  0.00  0.00
E_2u   2.00 -1.00 -1.00  2.00  0.00  0.00 -2.00  1.00  1.00 -2.00  0.00  0.00

     the symmetry operations in each class and the name of the first element:

     E        1
                                                                 
     2C6      5    6
                                                                 
     2C3      7    8
                                                                 
     C2       2
                                                                 
     3C2'     4   12   11
                                                                 
     3C2''    3    9   10
                                                                 
     i       13
                                                                 
     2S3     17   18
                                                                 
     2S6     19   20
                                                                 
     s_h     14
                                                                 
     3s_d    16   24   23
                                                                 
     3s_v    15   21   22
                                                                 

     Band symmetry, D_6h(6/mmm) point group:

     e(  1 -  1) =    -21.87042  eV     1   --> A_1g           
     e(  2 -  2) =     -9.96577  eV     1   --> A_2u           
     e(  3 -  4) =     -5.40920  eV     2   --> E_2g           
     e(  5 -  5) =      0.82621  eV     1   --> A_1g           
     e(  6 -  6) =      1.46621  eV     1   --> A_2u           
     e(  7 -  7) =      1.58008  eV     1   --> A_1g           
     e(  8 -  8) =      2.60427  eV     1   --> A_2u           
     e(  9 -  9) =      3.02550  eV     1   --> A_1g           
     e( 10 - 10) =      4.72014  eV     1   --> A_2u           
     e( 11 - 11) =      5.38148  eV     1   --> A_1g           
     e( 12 - 13) =      5.96200  eV     2   --> E_1u           
     e( 14 - 14) =      7.71444  eV     1   --> A_2u           
     e( 15 - 15) =      8.51904  eV     1   --> A_1g           
     e( 16 - 16) =      9.04645  eV     1   --> B_1g           

 **************************************************************************

 **************************************************************************

                    xk=(   0.00000,   0.01155,   0.00000  )

     point group C_2v (mm2) 
     there are  4 classes
     the character table:

       E     C2    s_v   s_v' 
A_1    1.00  1.00  1.00  1.00
A_2    1.00  1.00 -1.00 -1.00
B_1    1.00 -1.00  1.00 -1.00
B_2    1.00 -1.00 -1.00  1.00

     the symmetry operations in each class and the name of the first element:

     E        1
                                                                 
     C2       2
                                                                 
     s_v      3
                                                                 
     s_v'     4
                                                                 

     Band symmetry, C_2v (mm2)  point group:

     e(  1 -  1) =    -21.86806  eV     1   --> A_1  D_1  S_1  
     e(  2 -  2) =     -9.96295  eV     1   --> B_2  D_4  S_4  
     e(  3 -  3) =     -5.41907  eV     1   --> A_1  D_1  S_1  
     e(  4 -  4) =     -5.41442  eV     1   --> B_1  D_3  S_3  
     e(  5 -  5) =      0.82943  eV     1   --> A_1  D_1  S_1  
     e(  6 -  6) =      1.46947  eV     1   --> B_2  D_4  S_4  
     e(  7 -  7) =      1.58336  eV     1   --> A_1  D_1  S_1  
     e(  8 -  8) =      2.60752  eV     1   --> B_2  D_4  S_4  
     e(  9 -  9) =      3.02875  eV     1   --> A_1  D_1  S_1  
     e( 10 - 10) =      4.72336  eV     1   --> B_2  D_4  S_4  
     e( 11 - 11) =      5.38459  eV     1   --> A_1  D_1  S_1  
     e( 12 - 12) =      5.96364  eV     1   --> A_1  D_1  S_1  
     e( 13 - 13) =      5.97238  eV     1   --> B_1  D_3  S_3  
     e( 14 - 14) =      7.71762  eV     1   --> B_2  D_4  S_4  
     e( 15 - 15) =      8.52231  eV     1   --> A_1  D_1  S_1  
     e( 16 - 16) =      9.03814  eV     1   --> B_2  D_4  S_4  

 **************************************************************************

 **************************************************************************

                    xk=(   0.00000,   0.02309,   0.00000  )

     Band symmetry, C_2v (mm2)  point group:

     e(  1 -  1) =    -21.86098  eV     1   --> A_1  D_1  S_1  
     e(  2 -  2) =     -9.95448  eV     1   --> B_2  D_4  S_4  
     e(  3 -  3) =     -5.44858  eV     1   --> A_1  D_1  S_1  
     e(  4 -  4) =     -5.43002  eV     1   --> B_1  D_3  S_3  
     e(  5 -  5) =      0.83907  eV     1   --> A_1  D_1  S_1  
     e(  6 -  6) =      1.47926  eV     1   --> B_2  D_4  S_4  
     e(  7 -  7) =      1.59319  eV     1   --> A_1  D_1  S_1  
     e(  8 -  8) =      2.61726  eV     1   --> B_2  D_4  S_4  
     e(  9 -  9) =      3.03849  eV     1   --> A_1  D_1  S_1  
     e( 10 - 10) =      4.73303  eV     1   --> B_2  D_4  S_4  
     e( 11 - 11) =      5.39393  eV     1   --> A_1  D_1  S_1  
     e( 12 - 12) =      5.96843  eV     1   --> A_1  D_1  S_1  
     e( 13 - 13) =      6.00339  eV     1   --> B_1  D_3  S_3  
     e( 14 - 14) =      7.72713  eV     1   --> B_2  D_4  S_4  
     e( 15 - 15) =      8.53211  eV     1   --> A_1  D_1  S_1  
     e( 16 - 16) =      9.01325  eV     1   --> B_2  D_4  S_4  

 **************************************************************************

 **************************************************************************

                    xk=(   0.00000,   0.03464,   0.00000  )

     Band symmetry, C_2v (mm2)  point group:

     e(  1 -  1) =    -21.84918  eV     1   --> A_1  D_1  S_1  
     e(  2 -  2) =     -9.94037  eV     1   --> B_2  D_4  S_4  
     e(  3 -  3) =     -5.49746  eV     1   --> A_1  D_1  S_1  
     e(  4 -  4) =     -5.45579  eV     1   --> B_1  D_3  S_3  
     e(  5 -  5) =      0.85515  eV     1   --> A_1  D_1  S_1  
     e(  6 -  6) =      1.49556  eV     1   --> B_2  D_4  S_4  
     e(  7 -  7) =      1.60958  eV     1   --> A_1  D_1  S_1  
     e(  8 -  8) =      2.63350  eV     1   --> B_2  D_4  S_4  
     e(  9 -  9) =      3.05473  eV     1   --> A_1  D_1  S_1  
     e( 10 - 10) =      4.74915  eV     1   --> B_2  D_4  S_4  
     e( 11 - 11) =      5.40948  eV     1   --> A_1  D_1  S_1  
     e( 12 - 12) =      5.97606  eV     1   --> A_1  D_1  S_1  
     e( 13 - 13) =      6.05487  eV     1   --> B_1  D_3  S_3  
     e( 14 - 14) =      7.74300  eV     1   --> B_2  D_4  S_4  
     e( 15 - 15) =      8.54845  eV     1   --> A_1  D_1  S_1  
     e( 16 - 16) =      8.97192  eV     1   --> B_2  D_4  S_4  

 **************************************************************************

 **************************************************************************

                    xk=(   0.00000,   0.04619,   0.00000  )

     Band symmetry, C_2v (mm2)  point group:

     e(  1 -  1) =    -21.83266  eV     1   --> A_1  D_1  S_1  
     e(  2 -  2) =     -9.92062  eV     1   --> B_2  D_4  S_4  
     e(  3 -  3) =     -5.56524  eV     1   --> A_1  D_1  S_1  
     e(  4 -  4) =     -5.49141  eV     1   --> B_1  D_3  S_3  
     e(  5 -  5) =      0.87766  eV     1   --> A_1  D_1  S_1  
     e(  6 -  6) =      1.51839  eV     1   --> B_2  D_4  S_4  
     e(  7 -  7) =      1.63253  eV     1   --> A_1  D_1  S_1  
     e(  8 -  8) =      2.65624  eV     1   --> B_2  D_4  S_4  
     e(  9 -  9) =      3.07746  eV     1   --> A_1  D_1  S_1  
     e( 10 - 10) =      4.77171  eV     1   --> B_2  D_4  S_4  
     e( 11 - 11) =      5.43124  eV     1   --> A_1  D_1  S_1  
     e( 12 - 12) =      5.98599  eV     1   --> A_1  D_1  S_1  
     e( 13 - 13) =      6.12645  eV     1   --> B_1  D_3  S_3  
     e( 14 - 14) =      7.76520  eV     1   --> B_2  D_4  S_4  
     e( 15 - 15) =      8.57131  eV     1   --> A_1  D_1  S_1  
     e( 16 - 16) =      8.91438  eV     1   --> B_2  D_4  S_4  

 **************************************************************************

 **************************************************************************

                    xk=(   0.00000,   0.05774,   0.00000  )

     Band symmetry, C_2v (mm2)  point group:

     e(  1 -  1) =    -21.81143  eV     1   --> A_1  D_1  S_1  
     e(  2 -  2) =     -9.89523  eV     1   --> B_2  D_4  S_4  
     e(  3 -  3) =     -5.65131  eV     1   --> A_1  D_1  S_1  
     e(  4 -  4) =     -5.53645  eV     1   --> B_1  D_3  S_3  
     e(  5 -  5) =      0.90661  eV     1   --> A_1  D_1  S_1  
     e(  6 -  6) =      1.54774  eV     1   --> B_2  D_4  S_4  
     e(  7 -  7) =      1.66203  eV     1   --> A_1  D_1  S_1  
     e(  8 -  8) =      2.68546  eV     1   --> B_2  D_4  S_4  
     e(  9 -  9) =      3.10669  eV     1   --> A_1  D_1  S_1  
     e( 10 - 10) =      4.80071  eV     1   --> B_2  D_4  S_4  
     e( 11 - 11) =      5.45918  eV     1   --> A_1  D_1  S_1  
     e( 12 - 12) =      5.99759  eV     1   --> A_1  D_1  S_1  
     e( 13 - 13) =      6.21767  eV     1   --> B_1  D_3  S_3  
     e( 14 - 14) =      7.79373  eV     1   --> B_2  D_4  S_4  
     e( 15 - 15) =      8.60068  eV     1   --> A_1  D_1  S_1  
     e( 16 - 16) =      8.84095  eV     1   --> B_2  D_4  S_4  

 **************************************************************************

 **************************************************************************

                    xk=(   0.00000,   0.06928,   0.00000  )

     Band symmetry, C_2v (mm2)  point group:

     e(  1 -  1) =    -21.78549  eV     1   --> A_1  D_1  S_1  
     e(  2 -  2) =     -9.86423  eV     1   --> B_2  D_4  S_4  
     e(  3 -  3) =     -5.75491  eV     1   --> A_1  D_1  S_1  
     e(  4 -  4) =     -5.59036  eV     1   --> B_1  D_3  S_3  
     e(  5 -  5) =      0.94199  eV     1   --> A_1  D_1  S_1  
     e(  6 -  6) =      1.58361  eV     1   --> B_2  D_4  S_4  
     e(  7 -  7) =      1.69809  eV     1   --> A_1  D_1  S_1  
     e(  8 -  8) =      2.72118  eV     1   --> B_2  D_4  S_4  
     e(  9 -  9) =      3.14241  eV     1   --> A_1  D_1  S_1  
     e( 10 - 10) =      4.83614  eV     1   --> B_2  D_4  S_4  
     e( 11 - 11) =      5.49325  eV     1   --> A_1  D_1  S_1  
     e( 12 - 12) =      6.01010  eV     1   --> A_1  D_1  S_1  
     e( 13 - 13) =      6.32795  eV     1   --> B_1  D_3  S_3  
     e( 14 - 14) =      7.82859  eV     1   --> B_2  D_4  S_4  
     e( 15 - 15) =      8.63655  eV     1   --> A_1  D_1  S_1  
     e( 16 - 16) =      8.75202  eV     1   --> B_2  D_4  S_4  

 **************************************************************************

 **************************************************************************

                    xk=(   0.00000,   0.08083,   0.00000  )

     Band symmetry, C_2v (mm2)  point group:

     e(  1 -  1) =    -21.75485  eV     1   --> A_1  D_1  S_1  
     e(  2 -  2) =     -9.82761  eV     1   --> B_2  D_4  S_4  
     e(  3 -  3) =     -5.87519  eV     1   --> A_1  D_1  S_1  
     e(  4 -  4) =     -5.65255  eV     1   --> B_1  D_3  S_3  
     e(  5 -  5) =      0.98380  eV     1   --> A_1  D_1  S_1  
     e(  6 -  6) =      1.62600  eV     1   --> B_2  D_4  S_4  
     e(  7 -  7) =      1.74071  eV     1   --> A_1  D_1  S_1  
     e(  8 -  8) =      2.76339  eV     1   --> B_2  D_4  S_4  
     e(  9 -  9) =      3.18464  eV     1   --> A_1  D_1  S_1  
     e( 10 - 10) =      4.87801  eV     1   --> B_2  D_4  S_4  
     e( 11 - 11) =      5.53336  eV     1   --> A_1  D_1  S_1  
     e( 12 - 12) =      6.02276  eV     1   --> A_1  D_1  S_1  
     e( 13 - 13) =      6.45665  eV     1   --> B_1  D_3  S_3  
     e( 14 - 14) =      7.86974  eV     1   --> B_2  D_4  S_4  
     e( 15 - 15) =      8.64806  eV     1   --> B_2  D_4  S_4  
     e( 16 - 16) =      8.67888  eV     1   --> A_1  D_1  S_1  

 **************************************************************************

 **************************************************************************

                    xk=(   0.00000,   0.09238,   0.00000  )

     Band symmetry, C_2v (mm2)  point group:

     e(  1 -  1) =    -21.71950  eV     1   --> A_1  D_1  S_1  
     e(  2 -  2) =     -9.78539  eV     1   --> B_2  D_4  S_4  
     e(  3 -  3) =     -6.01120  eV     1   --> A_1  D_1  S_1  
     e(  4 -  4) =     -5.72234  eV     1   --> B_1  D_3  S_3  
     e(  5 -  5) =      1.03204  eV     1   --> A_1  D_1  S_1  
     e(  6 -  6) =      1.67490  eV     1   --> B_2  D_4  S_4  
     e(  7 -  7) =      1.78988  eV     1   --> A_1  D_1  S_1  
     e(  8 -  8) =      2.81208  eV     1   --> B_2  D_4  S_4  
     e(  9 -  9) =      3.23336  eV     1   --> A_1  D_1  S_1  
[...]
     e( 16 - 16) =     11.96759  eV     1   --> B_2  D_4  S_4  

 **************************************************************************

 **************************************************************************

                    xk=(   0.00000,   0.54271,   0.00000  )

     Band symmetry, C_2v (mm2)  point group:

     e(  1 -  1) =    -16.94263  eV     1   --> A_1  D_1  S_1  
     e(  2 -  2) =    -15.25908  eV     1   --> A_1  D_1  S_1  
     e(  3 -  3) =     -8.76384  eV     1   --> B_1  D_3  S_3  
     e(  4 -  4) =     -4.84769  eV     1   --> B_2  D_4  S_4  
     e(  5 -  5) =     -0.50644  eV     1   --> B_2  D_4  S_4  
     e(  6 -  6) =      5.02525  eV     1   --> A_1  D_1  S_1  
     e(  7 -  7) =      7.87308  eV     1   --> A_1  D_1  S_1  
     e(  8 -  8) =      8.61514  eV     1   --> B_2  D_4  S_4  
     e(  9 -  9) =      8.82075  eV     1   --> A_1  D_1  S_1  
     e( 10 - 10) =      9.70263  eV     1   --> B_2  D_4  S_4  
     e( 11 - 11) =      9.72138  eV     1   --> A_1  D_1  S_1  
     e( 12 - 12) =     10.19515  eV     1   --> A_1  D_1  S_1  
     e( 13 - 13) =     10.49723  eV     1   --> B_2  D_4  S_4  
     e( 14 - 14) =     10.78294  eV     1   --> A_1  D_1  S_1  
     e( 15 - 15) =     11.48608  eV     1   --> B_2  D_4  S_4  
     e( 16 - 16) =     11.81096  eV     1   --> B_2  D_4  S_4  

 **************************************************************************

 **************************************************************************

                    xk=(   0.00000,   0.55426,   0.00000  )

     Band symmetry, C_2v (mm2)  point group:

     e(  1 -  1) =    -16.79251  eV     1   --> A_1  D_1  S_1  
     e(  2 -  2) =    -15.42678  eV     1   --> A_1  D_1  S_1  
     e(  3 -  3) =     -8.77558  eV     1   --> B_1  D_3  S_3  
     e(  4 -  4) =     -4.77405  eV     1   --> B_2  D_4  S_4  
     e(  5 -  5) =     -0.59846  eV     1   --> B_2  D_4  S_4  
     e(  6 -  6) =      5.01930  eV     1   --> A_1  D_1  S_1  
     e(  7 -  7) =      8.16741  eV     1   --> A_1  D_1  S_1  
     e(  8 -  8) =      8.91373  eV     1   --> B_2  D_4  S_4  
     e(  9 -  9) =      9.13042  eV     1   --> A_1  D_1  S_1  
     e( 10 - 10) =      9.40732  eV     1   --> A_1  D_1  S_1  
     e( 11 - 11) =      9.96980  eV     1   --> B_2  D_4  S_4  
     e( 12 - 12) =     10.21065  eV     1   --> B_2  D_4  S_4  
     e( 13 - 13) =     10.43870  eV     1   --> A_1  D_1  S_1  
     e( 14 - 14) =     10.50005  eV     1   --> A_1  D_1  S_1  
     e( 15 - 15) =     11.24819  eV     1   --> B_2  D_4  S_4  
     e( 16 - 16) =     11.77546  eV     1   --> A_1  D_1  S_1  

 **************************************************************************

 **************************************************************************

                    xk=(   0.00000,   0.56580,   0.00000  )

     Band symmetry, C_2v (mm2)  point group:

     e(  1 -  1) =    -16.68131  eV     1   --> A_1  D_1  S_1  
     e(  2 -  2) =    -15.54852  eV     1   --> A_1  D_1  S_1  
     e(  3 -  3) =     -8.78263  eV     1   --> B_1  D_3  S_3  
     e(  4 -  4) =     -4.72818  eV     1   --> B_2  D_4  S_4  
     e(  5 -  5) =     -0.65538  eV     1   --> B_2  D_4  S_4  
     e(  6 -  6) =      5.01572  eV     1   --> A_1  D_1  S_1  
     e(  7 -  7) =      8.46424  eV     1   --> A_1  D_1  S_1  
     e(  8 -  8) =      9.09435  eV     1   --> A_1  D_1  S_1  
     e(  9 -  9) =      9.21390  eV     1   --> B_2  D_4  S_4  
     e( 10 - 10) =      9.45057  eV     1   --> A_1  D_1  S_1  
     e( 11 - 11) =      9.84343  eV     1   --> B_2  D_4  S_4  
     e( 12 - 12) =     10.10345  eV     1   --> A_1  D_1  S_1  
     e( 13 - 13) =     10.31962  eV     1   --> B_2  D_4  S_4  
     e( 14 - 14) =     10.80912  eV     1   --> A_1  D_1  S_1  
     e( 15 - 15) =     10.95399  eV     1   --> B_2  D_4  S_4  
     e( 16 - 16) =     11.44833  eV     1   --> A_1  D_1  S_1  

 **************************************************************************

 **************************************************************************

                    xk=(   0.00000,   0.57735,   0.00000  )

     zone border point and non-symmorphic group 
     symmetry decomposition not available

 **************************************************************************

 **************************************************************************

                    xk=(  -0.00667,   0.57735,   0.00000  )

     zone border point and non-symmorphic group 
     symmetry decomposition not available

 **************************************************************************

 **************************************************************************

                    xk=(  -0.01333,   0.57735,   0.00000  )

     zone border point and non-symmorphic group 
     symmetry decomposition not available

 **************************************************************************

 **************************************************************************

                    xk=(  -0.02000,   0.57735,   0.00000  )

     zone border point and non-symmorphic group 
     symmetry decomposition not available

 **************************************************************************

 **************************************************************************

                    xk=(  -0.02667,   0.57735,   0.00000  )

     zone border point and non-symmorphic group 
     symmetry decomposition not available

 **************************************************************************

 **************************************************************************

                    xk=(  -0.03333,   0.57735,   0.00000  )

     zone border point and non-symmorphic group 
     symmetry decomposition not available

 **************************************************************************

 **************************************************************************

                    xk=(  -0.04000,   0.57735,   0.00000  )

     zone border point and non-symmorphic group 
     symmetry decomposition not available

 **************************************************************************

 **************************************************************************

                    xk=(  -0.04667,   0.57735,   0.00000  )

     zone border point and non-symmorphic group 
     symmetry decomposition not available

 **************************************************************************

 **************************************************************************

                    xk=(  -0.05333,   0.57735,   0.00000  )

     zone border point and non-symmorphic group 
     symmetry decomposition not available

 **************************************************************************

 **************************************************************************

                    xk=(  -0.06000,   0.57735,   0.00000  )

     zone border point and non-symmorphic group 
     symmetry decomposition not available

 **************************************************************************

 **************************************************************************

                    xk=(  -0.06667,   0.57735,   0.00000  )

     zone border point and non-symmorphic group 
     symmetry decomposition not available

 **************************************************************************

 **************************************************************************

                    xk=(  -0.07333,   0.57735,   0.00000  )

     zone border point and non-symmorphic group 
     symmetry decomposition not available

 **************************************************************************

 **************************************************************************

                    xk=(  -0.08000,   0.57735,   0.00000  )

     zone border point and non-symmorphic group 
     symmetry decomposition not available

 **************************************************************************

 **************************************************************************

                    xk=(  -0.08667,   0.57735,   0.00000  )

     zone border point and non-symmorphic group 
     symmetry decomposition not available

 **************************************************************************

 **************************************************************************

                    xk=(  -0.09333,   0.57735,   0.00000  )

     zone border point and non-symmorphic group 
     symmetry decomposition not available

 **************************************************************************

 **************************************************************************

                    xk=(  -0.10000,   0.57735,   0.00000  )

     zone border point and non-symmorphic group 
     symmetry decomposition not available

 **************************************************************************

 **************************************************************************

                    xk=(  -0.10667,   0.57735,   0.00000  )

     zone border point and non-symmorphic group 
     symmetry decomposition not available

 **************************************************************************

 **************************************************************************

                    xk=(  -0.11333,   0.57735,   0.00000  )

     zone border point and non-symmorphic group 
     symmetry decomposition not available

 **************************************************************************

 **************************************************************************

                    xk=(  -0.12000,   0.57735,   0.00000  )

     zone border point and non-symmorphic group 
     symmetry decomposition not available

 **************************************************************************

 **************************************************************************

                    xk=(  -0.12667,   0.57735,   0.00000  )

     zone border point and non-symmorphic group 
     symmetry decomposition not available

 **************************************************************************

 **************************************************************************

                    xk=(  -0.13333,   0.57735,   0.00000  )

     zone border point and non-symmorphic group 
     symmetry decomposition not available

 **************************************************************************

 **************************************************************************

                    xk=(  -0.14000,   0.57735,   0.00000  )

     zone border point and non-symmorphic group 
     symmetry decomposition not available

 **************************************************************************

 **************************************************************************

                    xk=(  -0.14667,   0.57735,   0.00000  )

     zone border point and non-symmorphic group 
     symmetry decomposition not available

 **************************************************************************

 **************************************************************************

                    xk=(  -0.15333,   0.57735,   0.00000  )

     zone border point and non-symmorphic group 
     symmetry decomposition not available

 **************************************************************************

 **************************************************************************

                    xk=(  -0.16000,   0.57735,   0.00000  )

     zone border point and non-symmorphic group 
     symmetry decomposition not available

 **************************************************************************

 **************************************************************************

                    xk=(  -0.16667,   0.57735,   0.00000  )

     zone border point and non-symmorphic group 
     symmetry decomposition not available

 **************************************************************************

 **************************************************************************

                    xk=(  -0.17333,   0.57735,   0.00000  )

     zone border point and non-symmorphic group 
     symmetry decomposition not available

 **************************************************************************

 **************************************************************************

                    xk=(  -0.18000,   0.57735,   0.00000  )

     zone border point and non-symmorphic group 
     symmetry decomposition not available

 **************************************************************************

 **************************************************************************

                    xk=(  -0.18667,   0.57735,   0.00000  )

     zone border point and non-symmorphic group 
     symmetry decomposition not available

 **************************************************************************

 **************************************************************************

                    xk=(  -0.19333,   0.57735,   0.00000  )

     zone border point and non-symmorphic group 
     symmetry decomposition not available

 **************************************************************************

 **************************************************************************

                    xk=(  -0.20000,   0.57735,   0.00000  )

     zone border point and non-symmorphic group 
     symmetry decomposition not available

 **************************************************************************

 **************************************************************************

                    xk=(  -0.20667,   0.57735,   0.00000  )

     zone border point and non-symmorphic group 
     symmetry decomposition not available

 **************************************************************************

 **************************************************************************

                    xk=(  -0.21333,   0.57735,   0.00000  )

     zone border point and non-symmorphic group 
     symmetry decomposition not available

 **************************************************************************

 **************************************************************************

                    xk=(  -0.22000,   0.57735,   0.00000  )

     zone border point and non-symmorphic group 
     symmetry decomposition not available

 **************************************************************************

 **************************************************************************

                    xk=(  -0.22667,   0.57735,   0.00000  )

     zone border point and non-symmorphic group 
     symmetry decomposition not available

 **************************************************************************

 **************************************************************************

                    xk=(  -0.23333,   0.57735,   0.00000  )

     zone border point and non-symmorphic group 
     symmetry decomposition not available

 **************************************************************************

 **************************************************************************

                    xk=(  -0.24000,   0.57735,   0.00000  )

     zone border point and non-symmorphic group 
     symmetry decomposition not available

 **************************************************************************

 **************************************************************************

                    xk=(  -0.24667,   0.57735,   0.00000  )

     zone border point and non-symmorphic group 
     symmetry decomposition not available

 **************************************************************************

 **************************************************************************

                    xk=(  -0.25333,   0.57735,   0.00000  )

     zone border point and non-symmorphic group 
     symmetry decomposition not available

 **************************************************************************

 **************************************************************************

                    xk=(  -0.26000,   0.57735,   0.00000  )

     zone border point and non-symmorphic group 
     symmetry decomposition not available

 **************************************************************************

 **************************************************************************

                    xk=(  -0.26667,   0.57735,   0.00000  )

     zone border point and non-symmorphic group 
     symmetry decomposition not available

 **************************************************************************

 **************************************************************************

                    xk=(  -0.27333,   0.57735,   0.00000  )

     zone border point and non-symmorphic group 
     symmetry decomposition not available

 **************************************************************************

 **************************************************************************

                    xk=(  -0.28000,   0.57735,   0.00000  )

     zone border point and non-symmorphic group 
     symmetry decomposition not available

 **************************************************************************

 **************************************************************************

                    xk=(  -0.28667,   0.57735,   0.00000  )

     zone border point and non-symmorphic group 
     symmetry decomposition not available

 **************************************************************************

 **************************************************************************

                    xk=(  -0.29333,   0.57735,   0.00000  )

     zone border point and non-symmorphic group 
     symmetry decomposition not available

 **************************************************************************

 **************************************************************************

                    xk=(  -0.30000,   0.57735,   0.00000  )

     zone border point and non-symmorphic group 
     symmetry decomposition not available

 **************************************************************************

 **************************************************************************

                    xk=(  -0.30667,   0.57735,   0.00000  )

     zone border point and non-symmorphic group 
     symmetry decomposition not available

 **************************************************************************

 **************************************************************************

                    xk=(  -0.31333,   0.57735,   0.00000  )

     zone border point and non-symmorphic group 
     symmetry decomposition not available

 **************************************************************************

 **************************************************************************

                    xk=(  -0.32000,   0.57735,   0.00000  )

     zone border point and non-symmorphic group 
     symmetry decomposition not available

 **************************************************************************

 **************************************************************************

                    xk=(  -0.32667,   0.57735,   0.00000  )

     zone border point and non-symmorphic group 
     symmetry decomposition not available

 **************************************************************************

 **************************************************************************

                    xk=(  -0.33333,   0.57735,   0.00000  )

     zone border point and non-symmorphic group 
     symmetry decomposition not available

 **************************************************************************

     BANDS        :      4.54s CPU     18.19s WALL


   This run was terminated on:  19:47: 2  10Dec2023            

=------------------------------------------------------------------------------=
   JOB DONE.
=------------------------------------------------------------------------------=
