
     Program PWSCF v.7.2 starts on 30Nov2023 at 16:51:33 

     This program is part of the open-source Quantum ESPRESSO suite
     for quantum simulation of materials; please cite
         "P. Giannozzi et al., J. Phys.:Condens. Matter 21 395502 (2009);
         "P. Giannozzi et al., J. Phys.:Condens. Matter 29 465901 (2017);
         "P. Giannozzi et al., J. Chem. Phys. 152 154105 (2020);
          URL http://www.quantum-espresso.org", 
     in publications or presentations arising from this work. More details at
     http://www.quantum-espresso.org/quote

     Parallel version (MPI & OpenMP), running on       2 processor cores
     Number of MPI processes:                 2
     Threads/MPI process:                     1

     MPI processes distributed on     1 nodes
     507210 MiB available memory on the printing compute node when the environment starts
 
     Reading input from espresso.pwi

     Current dimensions of program PWSCF are:
     Max number of different atomic species (ntypx) = 10
     Max number of k-points (npk) =  40000
     Max angular momentum in pseudopotentials (lmaxx) =  4
     file O.pbe-n-kjpaw_psl.0.1.UPF: wavefunction(s)  2P renormalized
     Message from routine find_sym:
     Not a group! Trying with lower acceptance parameter...
     Message from routine find_sym:
     Symmetry operations form a group
 
     R & G space division:  proc/nbgrp/npool/nimage =       2
     Subspace diagonalization in iterative solution of the eigenvalue problem:
     a serial algorithm will be used

 
     Parallelization info
     --------------------
     sticks:   dense  smooth     PW     G-vecs:    dense   smooth      PW
     Min        4739    1951    559               178401    47447    7210
     Max        4740    1952    560               178402    47448    7211
     Sum        9479    3903   1119               356803    94895   14421
 
     Using Slab Decomposition
 


     bravais-lattice index     =            0
     lattice parameter (alat)  =      14.1684  a.u.
     unit-cell volume          =    1512.3338 (a.u.)^3
     number of atoms/cell      =           16
     number of atomic types    =            2
     number of electrons       =       128.00
     number of Kohn-Sham states=           85
     kinetic-energy cutoff     =      60.0000  Ry
     charge density cutoff     =     580.0000  Ry
     scf convergence threshold =      1.0E-07
     mixing beta               =       0.3000
     number of iterations used =            8  plain     mixing
     Exchange-correlation= SLA  PW   PBX  PBC
                           (   1   4   3   4   0   0   0)

     GPU acceleration is ACTIVE.

     Hubbard projectors: ortho-atomic
     Hubbard parameters of DFT+U (Dudarev formulation) in eV:
     U(W-5d) =  7.0000
     U(O-2p) =  8.0000

     Internal variables: lda_plus_u = T, lda_plus_u_kind = 0

     celldm(1)=  14.168413  celldm(2)=   0.000000  celldm(3)=   0.000000
     celldm(4)=   0.000000  celldm(5)=   0.000000  celldm(6)=   0.000000

     crystal axes: (cart. coord. in units of alat)
               a(1) = (   1.000000   0.000000   0.000000 )  
               a(2) = (   0.000000   1.022385   0.000000 )  
               a(3) = (   0.000000   0.000000   0.520079 )  

     reciprocal axes: (cart. coord. in units 2 pi/alat)
               b(1) = (  1.000000  0.000000  0.000000 )  
               b(2) = (  0.000000  0.978105  0.000000 )  
               b(3) = (  0.000000  0.000000  1.922784 )  


     PseudoPot. # 1 for W  read from file:
     /home/caique.campos/work/SSSP-EFF/W_pbe_v1.2.uspp.F.UPF
     MD5 check sum: 9c083fa34c2a2ea0f02f1f893e16e1c8
     Pseudo is Ultrasoft + core correction, Zval = 14.0
     Generated by new atomic code, or converted to UPF format
     Using radial grid of  923 points,  8 beta functions with: 
                l(1) =   0
                l(2) =   0
                l(3) =   0
                l(4) =   1
                l(5) =   1
                l(6) =   2
                l(7) =   2
                l(8) =   3
     Q(r) pseudized with  6 coefficients,  rinner =    1.350   1.350   1.350
                                                       1.350   1.350   1.350
                                                       1.350

     PseudoPot. # 2 for O  read from file:
     /home/caique.campos/work/SSSP-EFF/O.pbe-n-kjpaw_psl.0.1.UPF
     MD5 check sum: 0234752ac141de4415c5fc33072bef88
     Pseudo is Projector augmented-wave + core cor, Zval =  6.0
     Generated using "atomic" code by A. Dal Corso  v.5.0.99 svn rev. 10869
     Shape of augmentation charge: BESSEL
     Using radial grid of 1095 points,  4 beta functions with: 
                l(1) =   0
                l(2) =   0
                l(3) =   1
                l(4) =   1
     Q(r) pseudized with 0 coefficients 


     atomic species   valence    mass     pseudopotential
        W             14.00   183.84000     W ( 1.00)
        O              6.00    15.99900     O ( 1.00)

     Starting magnetic structure 
     atomic species   magnetization
        W            0.000
        O            0.000

     No symmetry found



   Cartesian axes

     site n.     atom                  positions (alat units)
         1           W   tau(   1) = (   0.2499973   1.0021174   0.4953088  )
         2           W   tau(   2) = (   0.2499973   0.4909228   0.0247724  )
         3           W   tau(   3) = (   0.7499991   0.5314663   0.4953088  )
         4           W   tau(   4) = (   0.7499991   0.0202717   0.0247724  )
         5           O   tau(   5) = (   0.7499991   0.7676378   0.5171547  )
         6           O   tau(   6) = (   0.7499991   1.0105241   0.2605816  )
         7           O   tau(   7) = (   0.4999982   0.0000000   0.0000000  )
         8           O   tau(   8) = (   0.7499991   0.2564432   0.0029264  )
         9           O   tau(   9) = (   0.2499973   0.5230557   0.2605816  )
        10           O   tau(  10) = (   0.0000000   0.0000000   0.0000000  )
        11           O   tau(  11) = (   0.2499973   0.2547513   0.0029264  )
        12           O   tau(  12) = (   0.2499973   0.0118650   0.2594995  )
        13           O   tau(  13) = (   0.2499973   0.7659459   0.5171547  )
        14           O   tau(  14) = (   0.4999982   0.5111946   0.0000000  )
        15           O   tau(  15) = (   0.7499991   0.4993334   0.2594995  )
        16           O   tau(  16) = (   0.0000000   0.5111946   0.0000000  )

     number of k points=    36  Gaussian smearing, width (Ry)=  0.0010
                       cart. coord. in units 2pi/alat
        k(    1) = (   0.0000000   0.0000000   0.0000000), wk =   0.0156250
        k(    2) = (   0.0000000   0.0000000   0.4806960), wk =   0.0312500
        k(    3) = (   0.0000000   0.0000000  -0.9613920), wk =   0.0156250
        k(    4) = (   0.0000000   0.2445262   0.0000000), wk =   0.0312500
        k(    5) = (   0.0000000   0.2445262   0.4806960), wk =   0.0312500
        k(    6) = (   0.0000000   0.2445262  -0.9613920), wk =   0.0312500
        k(    7) = (   0.0000000  -0.4890524   0.0000000), wk =   0.0156250
        k(    8) = (   0.0000000  -0.4890524   0.4806960), wk =   0.0312500
        k(    9) = (   0.0000000  -0.4890524  -0.9613920), wk =   0.0156250
        k(   10) = (   0.2500000   0.0000000   0.0000000), wk =   0.0312500
        k(   11) = (   0.2500000   0.0000000   0.4806960), wk =   0.0312500
        k(   12) = (   0.2500000   0.0000000  -0.9613920), wk =   0.0312500
        k(   13) = (   0.2500000   0.2445262   0.0000000), wk =   0.0312500
        k(   14) = (   0.2500000   0.2445262   0.4806960), wk =   0.0312500
        k(   15) = (   0.2500000   0.2445262  -0.9613920), wk =   0.0312500
        k(   16) = (   0.2500000  -0.4890524   0.0000000), wk =   0.0312500
        k(   17) = (   0.2500000  -0.4890524   0.4806960), wk =   0.0312500
        k(   18) = (   0.2500000  -0.4890524  -0.9613920), wk =   0.0312500
        k(   19) = (  -0.5000000   0.0000000   0.0000000), wk =   0.0156250
        k(   20) = (  -0.5000000   0.0000000   0.4806960), wk =   0.0312500
        k(   21) = (  -0.5000000   0.0000000  -0.9613920), wk =   0.0156250
        k(   22) = (  -0.5000000   0.2445262   0.0000000), wk =   0.0312500
        k(   23) = (  -0.5000000   0.2445262   0.4806960), wk =   0.0312500
        k(   24) = (  -0.5000000   0.2445262  -0.9613920), wk =   0.0312500
        k(   25) = (  -0.5000000  -0.4890524   0.0000000), wk =   0.0156250
        k(   26) = (  -0.5000000  -0.4890524   0.4806960), wk =   0.0312500
        k(   27) = (  -0.5000000  -0.4890524  -0.9613920), wk =   0.0156250
        k(   28) = (   0.0000000   0.2445262  -0.4806960), wk =   0.0312500
        k(   29) = (   0.2500000   0.0000000  -0.4806960), wk =   0.0312500
        k(   30) = (   0.2500000  -0.2445262   0.0000000), wk =   0.0312500
        k(   31) = (   0.2500000  -0.2445262  -0.4806960), wk =   0.0312500
        k(   32) = (   0.2500000   0.2445262  -0.4806960), wk =   0.0312500
        k(   33) = (  -0.2500000   0.2445262  -0.4806960), wk =   0.0312500
        k(   34) = (   0.2500000  -0.2445262   0.9613920), wk =   0.0312500
        k(   35) = (   0.2500000   0.4890524  -0.4806960), wk =   0.0312500
        k(   36) = (  -0.5000000   0.2445262  -0.4806960), wk =   0.0312500

     Dense  grid:   356803 G-vectors     FFT dimensions: ( 120, 120,  60)

     Smooth grid:    94895 G-vectors     FFT dimensions: (  72,  72,  40)

     Estimated max dynamical RAM per process >       2.15 GB

     Estimated total dynamical RAM >       4.30 GB
     Generating pointlists ...
     new r_m :   0.0978 (alat units)  1.3862 (a.u.) for type    1
     new r_m :   0.0978 (alat units)  1.3862 (a.u.) for type    2

     Initial potential from superposition of free atoms

     starting charge     127.5986, renormalised to     128.0000

     negative rho (up, down):  1.262E-01 1.262E-01

     STARTING HUBBARD OCCUPATIONS:

     =================== HUBBARD OCCUPATIONS ===================
     ------------------------ ATOM    1 ------------------------
     Tr[ns(  1)] (up, down, total) =   1.95000  1.95000  3.90000
     Atomic magnetic moment for atom   1 =   0.00000
     SPIN  1
     eigenvalues:
       0.390  0.390  0.390  0.390  0.390
     eigenvectors (columns):
       1.000  0.000  0.000  0.000  0.000
       0.000  1.000  0.000  0.000  0.000
       0.000  0.000  1.000  0.000  0.000
       0.000  0.000  0.000  1.000  0.000
       0.000  0.000  0.000  0.000  1.000
     occupation matrix ns (before diag.):
       0.390  0.000  0.000  0.000  0.000
       0.000  0.390  0.000  0.000  0.000
       0.000  0.000  0.390  0.000  0.000
       0.000  0.000  0.000  0.390  0.000
       0.000  0.000  0.000  0.000  0.390
     SPIN  2
     eigenvalues:
       0.390  0.390  0.390  0.390  0.390
     eigenvectors (columns):
       1.000  0.000  0.000  0.000  0.000
       0.000  1.000  0.000  0.000  0.000
       0.000  0.000  1.000  0.000  0.000
       0.000  0.000  0.000  1.000  0.000
       0.000  0.000  0.000  0.000  1.000
     occupation matrix ns (before diag.):
       0.390  0.000  0.000  0.000  0.000
       0.000  0.390  0.000  0.000  0.000
       0.000  0.000  0.390  0.000  0.000
       0.000  0.000  0.000  0.390  0.000
       0.000  0.000  0.000  0.000  0.390
     ------------------------ ATOM    2 ------------------------
     Tr[ns(  2)] (up, down, total) =   1.95000  1.95000  3.90000
     Atomic magnetic moment for atom   2 =   0.00000
     SPIN  1
     eigenvalues:
       0.390  0.390  0.390  0.390  0.390
     eigenvectors (columns):
       1.000  0.000  0.000  0.000  0.000
       0.000  1.000  0.000  0.000  0.000
       0.000  0.000  1.000  0.000  0.000
       0.000  0.000  0.000  1.000  0.000
       0.000  0.000  0.000  0.000  1.000
     occupation matrix ns (before diag.):
       0.390  0.000  0.000  0.000  0.000
       0.000  0.390  0.000  0.000  0.000
       0.000  0.000  0.390  0.000  0.000
       0.000  0.000  0.000  0.390  0.000
       0.000  0.000  0.000  0.000  0.390
     SPIN  2
     eigenvalues:
       0.390  0.390  0.390  0.390  0.390
     eigenvectors (columns):
       1.000  0.000  0.000  0.000  0.000
       0.000  1.000  0.000  0.000  0.000
       0.000  0.000  1.000  0.000  0.000
       0.000  0.000  0.000  1.000  0.000
       0.000  0.000  0.000  0.000  1.000
     occupation matrix ns (before diag.):
       0.390  0.000  0.000  0.000  0.000
       0.000  0.390  0.000  0.000  0.000
       0.000  0.000  0.390  0.000  0.000
       0.000  0.000  0.000  0.390  0.000
       0.000  0.000  0.000  0.000  0.390
     ------------------------ ATOM    3 ------------------------
     Tr[ns(  3)] (up, down, total) =   1.95000  1.95000  3.90000
     Atomic magnetic moment for atom   3 =   0.00000
     SPIN  1
     eigenvalues:
       0.390  0.390  0.390  0.390  0.390
     eigenvectors (columns):
       1.000  0.000  0.000  0.000  0.000
       0.000  1.000  0.000  0.000  0.000
       0.000  0.000  1.000  0.000  0.000
       0.000  0.000  0.000  1.000  0.000
       0.000  0.000  0.000  0.000  1.000
     occupation matrix ns (before diag.):
       0.390  0.000  0.000  0.000  0.000
       0.000  0.390  0.000  0.000  0.000
       0.000  0.000  0.390  0.000  0.000
       0.000  0.000  0.000  0.390  0.000
       0.000  0.000  0.000  0.000  0.390
     SPIN  2
     eigenvalues:
       0.390  0.390  0.390  0.390  0.390
     eigenvectors (columns):
       1.000  0.000  0.000  0.000  0.000
       0.000  1.000  0.000  0.000  0.000
       0.000  0.000  1.000  0.000  0.000
       0.000  0.000  0.000  1.000  0.000
       0.000  0.000  0.000  0.000  1.000
     occupation matrix ns (before diag.):
       0.390  0.000  0.000  0.000  0.000
       0.000  0.390  0.000  0.000  0.000
       0.000  0.000  0.390  0.000  0.000
       0.000  0.000  0.000  0.390  0.000
       0.000  0.000  0.000  0.000  0.390
     ------------------------ ATOM    4 ------------------------
     Tr[ns(  4)] (up, down, total) =   1.95000  1.95000  3.90000
     Atomic magnetic moment for atom   4 =   0.00000
     SPIN  1
     eigenvalues:
       0.390  0.390  0.390  0.390  0.390
     eigenvectors (columns):
       1.000  0.000  0.000  0.000  0.000
       0.000  1.000  0.000  0.000  0.000
       0.000  0.000  1.000  0.000  0.000
       0.000  0.000  0.000  1.000  0.000
       0.000  0.000  0.000  0.000  1.000
     occupation matrix ns (before diag.):
       0.390  0.000  0.000  0.000  0.000
       0.000  0.390  0.000  0.000  0.000
       0.000  0.000  0.390  0.000  0.000
       0.000  0.000  0.000  0.390  0.000
       0.000  0.000  0.000  0.000  0.390
     SPIN  2
     eigenvalues:
       0.390  0.390  0.390  0.390  0.390
     eigenvectors (columns):
       1.000  0.000  0.000  0.000  0.000
       0.000  1.000  0.000  0.000  0.000
       0.000  0.000  1.000  0.000  0.000
       0.000  0.000  0.000  1.000  0.000
       0.000  0.000  0.000  0.000  1.000
     occupation matrix ns (before diag.):
       0.390  0.000  0.000  0.000  0.000
       0.000  0.390  0.000  0.000  0.000
       0.000  0.000  0.390  0.000  0.000
       0.000  0.000  0.000  0.390  0.000
       0.000  0.000  0.000  0.000  0.390
     ------------------------ ATOM    5 ------------------------
     Tr[ns(  5)] (up, down, total) =   2.00000  2.00000  4.00000
     Atomic magnetic moment for atom   5 =   0.00000
     SPIN  1
     eigenvalues:
       0.667  0.667  0.667
     eigenvectors (columns):
       1.000  0.000  0.000
       0.000  1.000  0.000
       0.000  0.000  1.000
     occupation matrix ns (before diag.):
       0.667  0.000  0.000
       0.000  0.667  0.000
       0.000  0.000  0.667
     SPIN  2
     eigenvalues:
       0.667  0.667  0.667
     eigenvectors (columns):
       1.000  0.000  0.000
       0.000  1.000  0.000
       0.000  0.000  1.000
     occupation matrix ns (before diag.):
       0.667  0.000  0.000
       0.000  0.667  0.000
       0.000  0.000  0.667
     ------------------------ ATOM    6 ------------------------
     Tr[ns(  6)] (up, down, total) =   2.00000  2.00000  4.00000
     Atomic magnetic moment for atom   6 =   0.00000
     SPIN  1
     eigenvalues:
       0.667  0.667  0.667
     eigenvectors (columns):
       1.000  0.000  0.000
       0.000  1.000  0.000
       0.000  0.000  1.000
     occupation matrix ns (before diag.):
       0.667  0.000  0.000
       0.000  0.667  0.000
       0.000  0.000  0.667
     SPIN  2
     eigenvalues:
       0.667  0.667  0.667
     eigenvectors (columns):
       1.000  0.000  0.000
       0.000  1.000  0.000
       0.000  0.000  1.000
     occupation matrix ns (before diag.):
       0.667  0.000  0.000
       0.000  0.667  0.000
       0.000  0.000  0.667
     ------------------------ ATOM    7 ------------------------
     Tr[ns(  7)] (up, down, total) =   2.00000  2.00000  4.00000
     Atomic magnetic moment for atom   7 =   0.00000
     SPIN  1
     eigenvalues:
       0.667  0.667  0.667
     eigenvectors (columns):
       1.000  0.000  0.000
       0.000  1.000  0.000
       0.000  0.000  1.000
     occupation matrix ns (before diag.):
       0.667  0.000  0.000
       0.000  0.667  0.000
       0.000  0.000  0.667
     SPIN  2
     eigenvalues:
       0.667  0.667  0.667
     eigenvectors (columns):
       1.000  0.000  0.000
       0.000  1.000  0.000
       0.000  0.000  1.000
     occupation matrix ns (before diag.):
       0.667  0.000  0.000
       0.000  0.667  0.000
       0.000  0.000  0.667
     ------------------------ ATOM    8 ------------------------
     Tr[ns(  8)] (up, down, total) =   2.00000  2.00000  4.00000
     Atomic magnetic moment for atom   8 =   0.00000
     SPIN  1
     eigenvalues:
       0.667  0.667  0.667
     eigenvectors (columns):
       1.000  0.000  0.000
       0.000  1.000  0.000
       0.000  0.000  1.000
     occupation matrix ns (before diag.):
       0.667  0.000  0.000
       0.000  0.667  0.000
       0.000  0.000  0.667
     SPIN  2
     eigenvalues:
       0.667  0.667  0.667
     eigenvectors (columns):
       1.000  0.000  0.000
       0.000  1.000  0.000
       0.000  0.000  1.000
     occupation matrix ns (before diag.):
       0.667  0.000  0.000
       0.000  0.667  0.000
       0.000  0.000  0.667
     ------------------------ ATOM    9 ------------------------
     Tr[ns(  9)] (up, down, total) =   2.00000  2.00000  4.00000
     Atomic magnetic moment for atom   9 =   0.00000
     SPIN  1
     eigenvalues:
       0.667  0.667  0.667
     eigenvectors (columns):
       1.000  0.000  0.000
       0.000  1.000  0.000
       0.000  0.000  1.000
     occupation matrix ns (before diag.):
       0.667  0.000  0.000
       0.000  0.667  0.000
       0.000  0.000  0.667
     SPIN  2
     eigenvalues:
       0.667  0.667  0.667
     eigenvectors (columns):
       1.000  0.000  0.000
       0.000  1.000  0.000
       0.000  0.000  1.000
     occupation matrix ns (before diag.):
       0.667  0.000  0.000
       0.000  0.667  0.000
       0.000  0.000  0.667
     ------------------------ ATOM   10 ------------------------
     Tr[ns( 10)] (up, down, total) =   2.00000  2.00000  4.00000
     Atomic magnetic moment for atom  10 =   0.00000
     SPIN  1
     eigenvalues:
       0.667  0.667  0.667
     eigenvectors (columns):
       1.000  0.000  0.000
       0.000  1.000  0.000
       0.000  0.000  1.000
     occupation matrix ns (before diag.):
       0.667  0.000  0.000
       0.000  0.667  0.000
       0.000  0.000  0.667
     SPIN  2
     eigenvalues:
       0.667  0.667  0.667
     eigenvectors (columns):
       1.000  0.000  0.000
       0.000  1.000  0.000
       0.000  0.000  1.000
     occupation matrix ns (before diag.):
       0.667  0.000  0.000
       0.000  0.667  0.000
       0.000  0.000  0.667
     ------------------------ ATOM   11 ------------------------
     Tr[ns( 11)] (up, down, total) =   2.00000  2.00000  4.00000
     Atomic magnetic moment for atom  11 =   0.00000
     SPIN  1
     eigenvalues:
       0.667  0.667  0.667
     eigenvectors (columns):
       1.000  0.000  0.000
       0.000  1.000  0.000
       0.000  0.000  1.000
     occupation matrix ns (before diag.):
       0.667  0.000  0.000
       0.000  0.667  0.000
       0.000  0.000  0.667
     SPIN  2
     eigenvalues:
       0.667  0.667  0.667
     eigenvectors (columns):
       1.000  0.000  0.000
       0.000  1.000  0.000
       0.000  0.000  1.000
     occupation matrix ns (before diag.):
       0.667  0.000  0.000
       0.000  0.667  0.000
       0.000  0.000  0.667
     ------------------------ ATOM   12 ------------------------
     Tr[ns( 12)] (up, down, total) =   2.00000  2.00000  4.00000
     Atomic magnetic moment for atom  12 =   0.00000
     SPIN  1
     eigenvalues:
       0.667  0.667  0.667
     eigenvectors (columns):
       1.000  0.000  0.000
       0.000  1.000  0.000
       0.000  0.000  1.000
     occupation matrix ns (before diag.):
       0.667  0.000  0.000
       0.000  0.667  0.000
       0.000  0.000  0.667
     SPIN  2
     eigenvalues:
       0.667  0.667  0.667
     eigenvectors (columns):
       1.000  0.000  0.000
       0.000  1.000  0.000
       0.000  0.000  1.000
     occupation matrix ns (before diag.):
       0.667  0.000  0.000
       0.000  0.667  0.000
       0.000  0.000  0.667
     ------------------------ ATOM   13 ------------------------
     Tr[ns( 13)] (up, down, total) =   2.00000  2.00000  4.00000
     Atomic magnetic moment for atom  13 =   0.00000
     SPIN  1
     eigenvalues:
       0.667  0.667  0.667
     eigenvectors (columns):
       1.000  0.000  0.000
       0.000  1.000  0.000
       0.000  0.000  1.000
     occupation matrix ns (before diag.):
       0.667  0.000  0.000
       0.000  0.667  0.000
       0.000  0.000  0.667
     SPIN  2
     eigenvalues:
       0.667  0.667  0.667
     eigenvectors (columns):
       1.000  0.000  0.000
       0.000  1.000  0.000
       0.000  0.000  1.000
     occupation matrix ns (before diag.):
       0.667  0.000  0.000
       0.000  0.667  0.000
       0.000  0.000  0.667
     ------------------------ ATOM   14 ------------------------
     Tr[ns( 14)] (up, down, total) =   2.00000  2.00000  4.00000
     Atomic magnetic moment for atom  14 =   0.00000
     SPIN  1
     eigenvalues:
       0.667  0.667  0.667
     eigenvectors (columns):
       1.000  0.000  0.000
       0.000  1.000  0.000
       0.000  0.000  1.000
     occupation matrix ns (before diag.):
       0.667  0.000  0.000
       0.000  0.667  0.000
       0.000  0.000  0.667
     SPIN  2
     eigenvalues:
       0.667  0.667  0.667
     eigenvectors (columns):
       1.000  0.000  0.000
       0.000  1.000  0.000
       0.000  0.000  1.000
     occupation matrix ns (before diag.):
       0.667  0.000  0.000
       0.000  0.667  0.000
       0.000  0.000  0.667
     ------------------------ ATOM   15 ------------------------
     Tr[ns( 15)] (up, down, total) =   2.00000  2.00000  4.00000
     Atomic magnetic moment for atom  15 =   0.00000
     SPIN  1
     eigenvalues:
       0.667  0.667  0.667
     eigenvectors (columns):
       1.000  0.000  0.000
       0.000  1.000  0.000
       0.000  0.000  1.000
     occupation matrix ns (before diag.):
       0.667  0.000  0.000
       0.000  0.667  0.000
       0.000  0.000  0.667
     SPIN  2
     eigenvalues:
       0.667  0.667  0.667
     eigenvectors (columns):
       1.000  0.000  0.000
       0.000  1.000  0.000
       0.000  0.000  1.000
     occupation matrix ns (before diag.):
       0.667  0.000  0.000
       0.000  0.667  0.000
       0.000  0.000  0.667
     ------------------------ ATOM   16 ------------------------
     Tr[ns( 16)] (up, down, total) =   2.00000  2.00000  4.00000
     Atomic magnetic moment for atom  16 =   0.00000
     SPIN  1
     eigenvalues:
       0.667  0.667  0.667
     eigenvectors (columns):
       1.000  0.000  0.000
       0.000  1.000  0.000
       0.000  0.000  1.000
     occupation matrix ns (before diag.):
       0.667  0.000  0.000
       0.000  0.667  0.000
       0.000  0.000  0.667
     SPIN  2
     eigenvalues:
       0.667  0.667  0.667
     eigenvectors (columns):
       1.000  0.000  0.000
       0.000  1.000  0.000
       0.000  0.000  1.000
     occupation matrix ns (before diag.):
       0.667  0.000  0.000
       0.000  0.667  0.000
       0.000  0.000  0.667

     Number of occupied Hubbard levels =   63.6000

     Atomic wfc used for Hubbard projectors are orthogonalized

     Starting wfcs are  100 randomized atomic wfcs
     Checking if some PAW data can be deallocated... 

     total cpu time spent up to now is       11.5 secs

     Self-consistent Calculation

     iteration #  1     ecut=    60.00 Ry     beta= 0.30
     Davidson diagonalization with overlap
     ethr =  1.00E-02,  avg # of iterations =  2.7

     =================== HUBBARD OCCUPATIONS ===================
     ------------------------ ATOM    1 ------------------------
     Tr[ns(  1)] (up, down, total) =   0.92274  0.92265  1.84538
     Atomic magnetic moment for atom   1 =   0.00009
     SPIN  1
     eigenvalues:
       0.133  0.142  0.145  0.249  0.255
     eigenvectors (columns):
       0.001 -0.002 -0.074  0.997 -0.005
      -0.733  0.680 -0.017  0.001 -0.000
      -0.005  0.020  0.995  0.074 -0.071
      -0.000  0.001  0.070  0.010  0.997
       0.681  0.733 -0.012  0.000  0.000
     occupation matrix ns (before diag.):
       0.248  0.000  0.008  0.001  0.000
       0.000  0.137 -0.000 -0.000  0.005
       0.008 -0.000  0.146 -0.008 -0.000
       0.001 -0.000 -0.008  0.254  0.000
       0.000  0.005 -0.000  0.000  0.137
     SPIN  2
     eigenvalues:
       0.133  0.142  0.145  0.249  0.254
     eigenvectors (columns):
       0.000  0.001  0.074 -0.997 -0.011
       0.734  0.679 -0.007  0.000 -0.000
      -0.005 -0.005 -0.995 -0.074  0.070
      -0.001 -0.000 -0.071  0.005 -0.997
      -0.679  0.734 -0.000  0.000  0.000
     occupation matrix ns (before diag.):
       0.248 -0.000  0.008  0.001 -0.000
      -0.000  0.137  0.000  0.000  0.005
       0.008  0.000  0.146 -0.008 -0.000
       0.001  0.000 -0.008  0.254 -0.000
      -0.000  0.005 -0.000 -0.000  0.137
     ------------------------ ATOM    2 ------------------------
     Tr[ns(  2)] (up, down, total) =   0.92467  0.92505  1.84972
     Atomic magnetic moment for atom   2 =  -0.00039
     SPIN  1
     eigenvalues:
       0.133  0.142  0.146  0.249  0.255
     eigenvectors (columns):
      -0.000 -0.002 -0.074 -0.997  0.003
       0.696 -0.718  0.020 -0.001  0.000
       0.004 -0.024 -0.994  0.074  0.071
      -0.000  0.002  0.071 -0.002  0.997
       0.718  0.696 -0.014 -0.000 -0.001
     occupation matrix ns (before diag.):
       0.249  0.000 -0.008  0.001  0.000
       0.000  0.138 -0.000  0.000 -0.005
      -0.008 -0.000  0.147  0.008  0.000
       0.001  0.000  0.008  0.254 -0.000
       0.000 -0.005  0.000 -0.000  0.137
     SPIN  2
     eigenvalues:
       0.133  0.142  0.146  0.249  0.255
     eigenvectors (columns):
       0.001  0.001 -0.073 -0.997 -0.002
       0.698 -0.716 -0.019  0.001 -0.000
      -0.000  0.027 -0.994  0.073  0.071
       0.001 -0.002  0.071 -0.007  0.997
       0.716  0.698  0.019 -0.000 -0.000
     occupation matrix ns (before diag.):
       0.249 -0.000 -0.008  0.001  0.000
      -0.000  0.138  0.000 -0.000 -0.005
      -0.008  0.000  0.147  0.008 -0.000
       0.001 -0.000  0.008  0.254 -0.000
       0.000 -0.005 -0.000 -0.000  0.137
     ------------------------ ATOM    3 ------------------------
     Tr[ns(  3)] (up, down, total) =   0.92319  0.92342  1.84661
     Atomic magnetic moment for atom   3 =  -0.00023
     SPIN  1
     eigenvalues:
       0.133  0.142  0.145  0.249  0.254
     eigenvectors (columns):
       0.000 -0.002 -0.074  0.997  0.005
       0.702 -0.712  0.010 -0.001 -0.000
      -0.001 -0.014 -0.995 -0.074 -0.071
      -0.000  0.001  0.070  0.010 -0.997
       0.712  0.702 -0.011  0.000  0.000
     occupation matrix ns (before diag.):
       0.248 -0.000 -0.008  0.001  0.000
      -0.000  0.137 -0.000  0.000 -0.005
      -0.008 -0.000  0.146  0.008  0.000
       0.001  0.000  0.008  0.254 -0.000
       0.000 -0.005  0.000 -0.000  0.137
     SPIN  2
     eigenvalues:
       0.133  0.142  0.146  0.249  0.254
     eigenvectors (columns):
       0.000  0.002 -0.072 -0.997  0.024
      -0.707 -0.707 -0.009 -0.001  0.001
      -0.005  0.017 -0.995  0.071 -0.074
      -0.000 -0.002  0.072 -0.029 -0.997
      -0.707  0.707  0.016 -0.000 -0.000
     occupation matrix ns (before diag.):
       0.248  0.000 -0.007  0.000  0.000
       0.000  0.137 -0.000 -0.000 -0.005
      -0.007 -0.000  0.147  0.008 -0.000
       0.000 -0.000  0.008  0.254  0.000
       0.000 -0.005 -0.000  0.000  0.137
     ------------------------ ATOM    4 ------------------------
     Tr[ns(  4)] (up, down, total) =   0.92334  0.92320  1.84654
     Atomic magnetic moment for atom   4 =   0.00015
     SPIN  1
     eigenvalues:
       0.133  0.142  0.145  0.249  0.255
     eigenvectors (columns):
      -0.000  0.001 -0.073  0.997  0.024
      -0.705  0.709  0.019  0.000  0.001
       0.004 -0.023  0.995  0.071  0.073
      -0.000 -0.001  0.071  0.030 -0.997
       0.709  0.705  0.013  0.000  0.000
     occupation matrix ns (before diag.):
       0.248  0.000  0.008  0.000  0.000
       0.000  0.137  0.000 -0.000  0.005
       0.008  0.000  0.146 -0.008  0.000
       0.000 -0.000 -0.008  0.254 -0.000
       0.000  0.005  0.000 -0.000  0.137
     SPIN  2
     eigenvalues:
       0.133  0.142  0.145  0.249  0.254
     eigenvectors (columns):
       0.000 -0.000  0.074  0.997  0.012
      -0.707 -0.707  0.003 -0.000 -0.000
      -0.003 -0.002 -0.995  0.073  0.071
      -0.000  0.000 -0.070  0.017 -0.997
       0.707 -0.707 -0.001 -0.000 -0.000
     occupation matrix ns (before diag.):
       0.248 -0.000  0.008  0.000 -0.000
      -0.000  0.137 -0.000  0.000  0.005
       0.008 -0.000  0.147 -0.008  0.000
       0.000  0.000 -0.008  0.254  0.000
      -0.000  0.005  0.000  0.000  0.137
     ------------------------ ATOM    5 ------------------------
     Tr[ns(  5)] (up, down, total) =   2.69322  2.69343  5.38664
     Atomic magnetic moment for atom   5 =  -0.00021
     SPIN  1
     eigenvalues:
       0.863  0.915  0.915
     eigenvectors (columns):
      -0.045 -0.281  0.959
       0.001 -0.960 -0.281
       0.999 -0.012  0.044
     occupation matrix ns (before diag.):
       0.915 -0.000  0.002
      -0.000  0.915 -0.000
       0.002 -0.000  0.863
     SPIN  2
     eigenvalues:
       0.863  0.915  0.916
     eigenvectors (columns):
      -0.039  0.263  0.964
       0.001 -0.965  0.263
       0.999  0.011  0.037
     occupation matrix ns (before diag.):
       0.916  0.000  0.002
       0.000  0.915 -0.000
       0.002 -0.000  0.863
     ------------------------ ATOM    6 ------------------------
     Tr[ns(  6)] (up, down, total) =   2.69479  2.69482  5.38962
     Atomic magnetic moment for atom   6 =  -0.00003
     SPIN  1
     eigenvalues:
       0.861  0.916  0.917
     eigenvectors (columns):
       1.000  0.001 -0.000
      -0.001  0.995 -0.099
      -0.000  0.099  0.995
     occupation matrix ns (before diag.):
       0.861  0.000  0.000
       0.000  0.916 -0.000
       0.000 -0.000  0.917
     SPIN  2
     eigenvalues:
       0.861  0.916  0.917
     eigenvectors (columns):
       1.000  0.001  0.003
       0.001 -0.999  0.040
      -0.003  0.040  0.999
     occupation matrix ns (before diag.):
       0.861 -0.000  0.000
      -0.000  0.916  0.000
       0.000  0.000  0.917
     ------------------------ ATOM    7 ------------------------
     Tr[ns(  7)] (up, down, total) =   2.70336  2.70344  5.40680
     Atomic magnetic moment for atom   7 =  -0.00008
     SPIN  1
     eigenvalues:
       0.861  0.921  0.921
     eigenvectors (columns):
      -0.029  1.000 -0.002
       0.999  0.029 -0.025
       0.025  0.002  1.000
     occupation matrix ns (before diag.):
       0.921  0.002  0.000
       0.002  0.862 -0.001
       0.000 -0.001  0.921
     SPIN  2
     eigenvalues:
       0.862  0.921  0.921
     eigenvectors (columns):
      -0.031  0.995 -0.093
       0.999  0.029 -0.026
       0.023  0.094  0.995
     occupation matrix ns (before diag.):
       0.921  0.002 -0.000
       0.002  0.862 -0.001
      -0.000 -0.001  0.921
     ------------------------ ATOM    8 ------------------------
     Tr[ns(  8)] (up, down, total) =   2.69324  2.69321  5.38645
     Atomic magnetic moment for atom   8 =   0.00003
     SPIN  1
     eigenvalues:
       0.863  0.915  0.916
     eigenvectors (columns):
       0.040  0.014 -0.999
       0.000  1.000  0.014
       0.999 -0.001  0.040
     occupation matrix ns (before diag.):
       0.915 -0.000 -0.002
      -0.000  0.915 -0.000
      -0.002 -0.000  0.863
     SPIN  2
     eigenvalues:
       0.863  0.915  0.915
     eigenvectors (columns):
       0.043 -0.267  0.963
      -0.001 -0.964 -0.267
       0.999  0.010 -0.041
     occupation matrix ns (before diag.):
       0.915 -0.000 -0.002
      -0.000  0.915  0.000
      -0.002  0.000  0.863
     ------------------------ ATOM    9 ------------------------
     Tr[ns(  9)] (up, down, total) =   2.69344  2.69326  5.38670
     Atomic magnetic moment for atom   9 =   0.00018
     SPIN  1
     eigenvalues:
       0.861  0.916  0.917
     eigenvectors (columns):
      -1.000  0.005 -0.002
       0.004  0.997  0.072
      -0.003 -0.072  0.997
     occupation matrix ns (before diag.):
       0.861  0.000 -0.000
       0.000  0.916  0.000
      -0.000  0.000  0.917
     SPIN  2
     eigenvalues:
       0.861  0.916  0.917
     eigenvectors (columns):
       1.000 -0.005 -0.001
       0.005  0.998 -0.068
       0.001  0.068  0.998
     occupation matrix ns (before diag.):
       0.861 -0.000 -0.000
      -0.000  0.916 -0.000
      -0.000 -0.000  0.917
     ------------------------ ATOM   10 ------------------------
     Tr[ns( 10)] (up, down, total) =   2.70352  2.70366  5.40718
     Atomic magnetic moment for atom  10 =  -0.00014
     SPIN  1
     eigenvalues:
       0.861  0.921  0.921
     eigenvectors (columns):
      -0.032  0.996  0.086
      -0.999 -0.030 -0.028
       0.025  0.086 -0.996
     occupation matrix ns (before diag.):
       0.921 -0.002  0.000
      -0.002  0.862  0.001
       0.000  0.001  0.921
     SPIN  2
     eigenvalues:
       0.862  0.921  0.921
     eigenvectors (columns):
      -0.027  1.000  0.016
      -0.999 -0.027 -0.023
       0.022  0.016 -1.000
     occupation matrix ns (before diag.):
       0.921 -0.002  0.000
      -0.002  0.862  0.001
       0.000  0.001  0.921
     ------------------------ ATOM   11 ------------------------
     Tr[ns( 11)] (up, down, total) =   2.69281  2.69278  5.38559
     Atomic magnetic moment for atom  11 =   0.00003
     SPIN  1
     eigenvalues:
       0.863  0.915  0.915
     eigenvectors (columns):
      -0.040  0.261 -0.965
      -0.001  0.965  0.261
       0.999  0.011 -0.039
     occupation matrix ns (before diag.):
       0.915 -0.000  0.002
      -0.000  0.915  0.000
       0.002  0.000  0.863
     SPIN  2
     eigenvalues:
       0.862  0.915  0.916
     eigenvectors (columns):
      -0.044 -0.107 -0.993
      -0.001  0.994 -0.107
       0.999 -0.004 -0.044
     occupation matrix ns (before diag.):
       0.915  0.000  0.002
       0.000  0.915  0.000
       0.002  0.000  0.862
     ------------------------ ATOM   12 ------------------------
     Tr[ns( 12)] (up, down, total) =   2.69686  2.69696  5.39382
     Atomic magnetic moment for atom  12 =  -0.00009
     SPIN  1
     eigenvalues:
       0.862  0.917  0.918
     eigenvectors (columns):
       1.000  0.001  0.003
      -0.001  0.993  0.119
      -0.002 -0.119  0.993
     occupation matrix ns (before diag.):
       0.862  0.000  0.000
       0.000  0.917  0.000
       0.000  0.000  0.918
     SPIN  2
     eigenvalues:
       0.862  0.917  0.918
     eigenvectors (columns):
       1.000  0.000  0.000
      -0.000  0.998 -0.062
      -0.000  0.062  0.998
     occupation matrix ns (before diag.):
       0.862  0.000  0.000
       0.000  0.917 -0.000
       0.000 -0.000  0.918
     ------------------------ ATOM   13 ------------------------
     Tr[ns( 13)] (up, down, total) =   2.69175  2.69158  5.38333
     Atomic magnetic moment for atom  13 =   0.00018
     SPIN  1
     eigenvalues:
       0.862  0.915  0.915
     eigenvectors (columns):
       0.044  0.002 -0.999
       0.002  1.000  0.002
       0.999 -0.002  0.044
     occupation matrix ns (before diag.):
       0.915 -0.000 -0.002
      -0.000  0.915 -0.000
      -0.002 -0.000  0.862
     SPIN  2
     eigenvalues:
       0.862  0.915  0.915
     eigenvectors (columns):
       0.040  0.264  0.964
      -0.002 -0.964  0.264
       0.999 -0.012 -0.038
     occupation matrix ns (before diag.):
       0.915  0.000 -0.002
       0.000  0.915  0.000
      -0.002  0.000  0.862
     ------------------------ ATOM   14 ------------------------
     Tr[ns( 14)] (up, down, total) =   2.70436  2.70430  5.40865
     Atomic magnetic moment for atom  14 =   0.00006
     SPIN  1
     eigenvalues:
       0.862  0.921  0.921
     eigenvectors (columns):
       0.029  0.997 -0.074
       0.999 -0.031 -0.025
       0.027  0.073  0.997
     occupation matrix ns (before diag.):
       0.921 -0.002 -0.000
      -0.002  0.862 -0.002
      -0.000 -0.002  0.921
     SPIN  2
     eigenvalues:
       0.862  0.921  0.921
     eigenvectors (columns):
       0.033  0.980  0.195
       0.999 -0.028 -0.027
       0.021 -0.195  0.980
     occupation matrix ns (before diag.):
       0.921 -0.002  0.000
      -0.002  0.862 -0.001
       0.000 -0.001  0.921
     ------------------------ ATOM   15 ------------------------
     Tr[ns( 15)] (up, down, total) =   2.69480  2.69459  5.38939
     Atomic magnetic moment for atom  15 =   0.00021
     SPIN  1
     eigenvalues:
       0.861  0.916  0.918
     eigenvectors (columns):
      -1.000 -0.001 -0.002
      -0.001  1.000  0.022
      -0.002 -0.022  1.000
     occupation matrix ns (before diag.):
       0.861 -0.000 -0.000
      -0.000  0.916  0.000
      -0.000  0.000  0.918
     SPIN  2
     eigenvalues:
       0.861  0.916  0.917
     eigenvectors (columns):
      -1.000  0.001 -0.001
       0.001  1.000  0.003
      -0.001 -0.003  1.000
     occupation matrix ns (before diag.):
       0.861  0.000 -0.000
       0.000  0.916  0.000
      -0.000  0.000  0.917
     ------------------------ ATOM   16 ------------------------
     Tr[ns( 16)] (up, down, total) =   2.70265  2.70221  5.40486
     Atomic magnetic moment for atom  16 =   0.00045
     SPIN  1
     eigenvalues:
       0.861  0.920  0.921
     eigenvectors (columns):
       0.032  0.997 -0.066
      -0.999  0.030 -0.026
       0.024 -0.066 -0.997
     occupation matrix ns (before diag.):
       0.920  0.002 -0.000
       0.002  0.862  0.001
      -0.000  0.001  0.921
     SPIN  2
     eigenvalues:
       0.861  0.920  0.921
     eigenvectors (columns):
       0.028  0.999 -0.038
      -0.999  0.027 -0.023
       0.022 -0.039 -0.999
     occupation matrix ns (before diag.):
       0.920  0.002 -0.000
       0.002  0.861  0.001
      -0.000  0.001  0.921

     Number of occupied Hubbard levels =   72.1173

     negative rho (up, down):  1.256E-01 1.256E-01

     total cpu time spent up to now is       19.2 secs

     total energy              =   -1131.17733843 Ry
     estimated scf accuracy    <       9.59408075 Ry

     total magnetization       =    -0.00 Bohr mag/cell
     absolute magnetization    =     0.02 Bohr mag/cell

     iteration #  2     ecut=    60.00 Ry     beta= 0.30
     Davidson diagonalization with overlap
     ethr =  7.50E-03,  avg # of iterations =  1.8

     negative rho (up, down):  1.269E-01 1.269E-01

     total cpu time spent up to now is       25.9 secs

     total energy              =   -1130.91414686 Ry
     estimated scf accuracy    <       1.68759141 Ry

     total magnetization       =     0.00 Bohr mag/cell
     absolute magnetization    =     0.02 Bohr mag/cell

     iteration #  3     ecut=    60.00 Ry     beta= 0.30
     Davidson diagonalization with overlap
     ethr =  1.32E-03,  avg # of iterations =  5.0

     negative rho (up, down):  1.280E-01 1.280E-01

     total cpu time spent up to now is       35.4 secs

     total energy              =   -1131.48801744 Ry
     estimated scf accuracy    <       1.14846519 Ry

     total magnetization       =    -0.00 Bohr mag/cell
     absolute magnetization    =     0.01 Bohr mag/cell

     iteration #  4     ecut=    60.00 Ry     beta= 0.30
     Davidson diagonalization with overlap
     ethr =  8.97E-04,  avg # of iterations =  1.8

     negative rho (up, down):  1.291E-01 1.291E-01

     total cpu time spent up to now is       42.1 secs

     total energy              =   -1131.71564078 Ry
     estimated scf accuracy    <       0.13650552 Ry

     total magnetization       =     0.00 Bohr mag/cell
     absolute magnetization    =     0.01 Bohr mag/cell

     iteration #  5     ecut=    60.00 Ry     beta= 0.30
     Davidson diagonalization with overlap
     ethr =  1.07E-04,  avg # of iterations =  3.7

     negative rho (up, down):  1.294E-01 1.293E-01

     total cpu time spent up to now is       50.0 secs

     total energy              =   -1131.73920185 Ry
     estimated scf accuracy    <       0.01133966 Ry

     total magnetization       =     0.00 Bohr mag/cell
     absolute magnetization    =     0.01 Bohr mag/cell

     iteration #  6     ecut=    60.00 Ry     beta= 0.30
     Davidson diagonalization with overlap
     ethr =  8.86E-06,  avg # of iterations =  7.2

     negative rho (up, down):  1.297E-01 1.297E-01

     total cpu time spent up to now is       60.6 secs

     total energy              =   -1131.74243836 Ry
     estimated scf accuracy    <       0.04845860 Ry

     total magnetization       =    -0.00 Bohr mag/cell
     absolute magnetization    =     0.00 Bohr mag/cell

     iteration #  7     ecut=    60.00 Ry     beta= 0.30
     Davidson diagonalization with overlap
     ethr =  8.86E-06,  avg # of iterations =  2.2

     negative rho (up, down):  1.299E-01 1.299E-01

     total cpu time spent up to now is       67.5 secs

     total energy              =   -1131.73967051 Ry
     estimated scf accuracy    <       0.01322032 Ry

     total magnetization       =     0.00 Bohr mag/cell
     absolute magnetization    =     0.00 Bohr mag/cell

     iteration #  8     ecut=    60.00 Ry     beta= 0.30
     Davidson diagonalization with overlap
     ethr =  8.86E-06,  avg # of iterations =  3.4

     negative rho (up, down):  1.301E-01 1.301E-01

     total cpu time spent up to now is       75.3 secs

     total energy              =   -1131.74165418 Ry
     estimated scf accuracy    <       0.00017341 Ry

     total magnetization       =    -0.00 Bohr mag/cell
     absolute magnetization    =     0.00 Bohr mag/cell

     iteration #  9     ecut=    60.00 Ry     beta= 0.30
     Davidson diagonalization with overlap
     ethr =  1.35E-07,  avg # of iterations =  4.8

     negative rho (up, down):  1.301E-01 1.301E-01

     total cpu time spent up to now is       84.6 secs

     total energy              =   -1131.74174294 Ry
     estimated scf accuracy    <       0.00031092 Ry

     total magnetization       =     0.00 Bohr mag/cell
     absolute magnetization    =     0.00 Bohr mag/cell

     iteration # 10     ecut=    60.00 Ry     beta= 0.30
     Davidson diagonalization with overlap
     ethr =  1.35E-07,  avg # of iterations =  1.7

     negative rho (up, down):  1.302E-01 1.302E-01

     total cpu time spent up to now is       91.3 secs

     total energy              =   -1131.74174549 Ry
     estimated scf accuracy    <       0.00005667 Ry

     total magnetization       =    -0.00 Bohr mag/cell
     absolute magnetization    =     0.00 Bohr mag/cell

     iteration # 11     ecut=    60.00 Ry     beta= 0.30
     Davidson diagonalization with overlap
     ethr =  4.43E-08,  avg # of iterations =  2.7

     negative rho (up, down):  1.303E-01 1.303E-01

     total cpu time spent up to now is       98.6 secs

     total energy              =   -1131.74175522 Ry
     estimated scf accuracy    <       0.00000491 Ry

     total magnetization       =    -0.00 Bohr mag/cell
     absolute magnetization    =     0.00 Bohr mag/cell

     iteration # 12     ecut=    60.00 Ry     beta= 0.30
     Davidson diagonalization with overlap
     ethr =  3.84E-09,  avg # of iterations =  2.7

     negative rho (up, down):  1.303E-01 1.303E-01

     total cpu time spent up to now is      106.4 secs

     total energy              =   -1131.74175688 Ry
     estimated scf accuracy    <       0.00000013 Ry

     total magnetization       =    -0.00 Bohr mag/cell
     absolute magnetization    =     0.00 Bohr mag/cell

     iteration # 13     ecut=    60.00 Ry     beta= 0.30
     Davidson diagonalization with overlap
     ethr =  1.04E-10,  avg # of iterations =  4.2

     negative rho (up, down):  1.303E-01 1.303E-01
 
     Magnetic moment per site  (integrated on atomic sphere of radius R)
     atom   1 (R=0.098)  charge=  7.4838  magn= -0.0000
     atom   2 (R=0.098)  charge=  7.4838  magn= -0.0000
     atom   3 (R=0.098)  charge=  7.4838  magn= -0.0000
     atom   4 (R=0.098)  charge=  7.4838  magn= -0.0000
     atom   5 (R=0.098)  charge=  5.1111  magn=  0.0000
     atom   6 (R=0.098)  charge=  5.0837  magn= -0.0000
     atom   7 (R=0.098)  charge=  5.1291  magn=  0.0000
     atom   8 (R=0.098)  charge=  5.1111  magn=  0.0000
     atom   9 (R=0.098)  charge=  5.0837  magn=  0.0000
     atom  10 (R=0.098)  charge=  5.1292  magn=  0.0000
     atom  11 (R=0.098)  charge=  5.1111  magn=  0.0000
     atom  12 (R=0.098)  charge=  5.0837  magn=  0.0000
     atom  13 (R=0.098)  charge=  5.1111  magn=  0.0000
     atom  14 (R=0.098)  charge=  5.1291  magn=  0.0000
     atom  15 (R=0.098)  charge=  5.0837  magn=  0.0000
     atom  16 (R=0.098)  charge=  5.1292  magn=  0.0000

     total cpu time spent up to now is      115.5 secs

     End of self-consistent calculation

     =================== HUBBARD OCCUPATIONS ===================
     ------------------------ ATOM    1 ------------------------
     Tr[ns(  1)] (up, down, total) =   1.53091  1.53095  3.06186
     Atomic magnetic moment for atom   1 =  -0.00004
     SPIN  1
     eigenvalues:
       0.243  0.258  0.272  0.378  0.380
     eigenvectors (columns):
       0.000  0.000  0.064 -0.998 -0.029
      -0.559 -0.829  0.000 -0.000  0.000
      -0.000 -0.000 -0.995 -0.062 -0.073
      -0.000 -0.000 -0.071 -0.034  0.997
       0.829 -0.559  0.000 -0.000  0.000
     occupation matrix ns (before diag.):
       0.377  0.000  0.007  0.000  0.000
       0.000  0.253 -0.000  0.000  0.007
       0.007 -0.000  0.273 -0.008  0.000
       0.000  0.000 -0.008  0.380  0.000
       0.000  0.007  0.000  0.000  0.248
     SPIN  2
     eigenvalues:
       0.243  0.258  0.272  0.378  0.380
     eigenvectors (columns):
      -0.000  0.000  0.064 -0.998  0.029
      -0.559  0.829 -0.000  0.000 -0.000
       0.000 -0.000 -0.995 -0.062  0.073
       0.000 -0.000 -0.071 -0.034 -0.997
       0.829  0.559 -0.000  0.000  0.000
     occupation matrix ns (before diag.):
       0.377 -0.000  0.007  0.000 -0.000
      -0.000  0.253  0.000  0.000  0.007
       0.007  0.000  0.273 -0.008 -0.000
       0.000  0.000 -0.008  0.380 -0.000
      -0.000  0.007 -0.000 -0.000  0.248
     ------------------------ ATOM    2 ------------------------
     Tr[ns(  2)] (up, down, total) =   1.53091  1.53094  3.06185
     Atomic magnetic moment for atom   2 =  -0.00003
     SPIN  1
     eigenvalues:
       0.243  0.258  0.272  0.378  0.380
     eigenvectors (columns):
      -0.000 -0.000 -0.064  0.998  0.029
       0.559 -0.829  0.001  0.000  0.000
       0.000 -0.001 -0.995 -0.062 -0.073
       0.000  0.000  0.071  0.034 -0.997
       0.829  0.559 -0.000 -0.000 -0.000
     occupation matrix ns (before diag.):
       0.377  0.000 -0.007  0.000  0.000
       0.000  0.253 -0.000  0.000 -0.007
      -0.007 -0.000  0.273  0.008  0.000
       0.000  0.000  0.008  0.380 -0.000
       0.000 -0.007  0.000 -0.000  0.248
     SPIN  2
     eigenvalues:
       0.243  0.258  0.272  0.378  0.380
     eigenvectors (columns):
       0.000  0.000 -0.064  0.998  0.029
       0.559 -0.829 -0.001 -0.000  0.000
      -0.000  0.001 -0.995 -0.062 -0.073
       0.000 -0.000  0.071  0.034 -0.997
       0.829  0.559  0.000  0.000  0.000
     occupation matrix ns (before diag.):
       0.377 -0.000 -0.007  0.000  0.000
      -0.000  0.253  0.000 -0.000 -0.007
      -0.007  0.000  0.273  0.008 -0.000
       0.000 -0.000  0.008  0.380 -0.000
       0.000 -0.007 -0.000 -0.000  0.248
     ------------------------ ATOM    3 ------------------------
     Tr[ns(  3)] (up, down, total) =   1.53090  1.53095  3.06186
     Atomic magnetic moment for atom   3 =  -0.00005
     SPIN  1
     eigenvalues:
       0.243  0.258  0.272  0.378  0.380
     eigenvectors (columns):
       0.000 -0.000 -0.064  0.998  0.029
       0.559 -0.829  0.000 -0.000 -0.000
      -0.000 -0.000 -0.995 -0.062 -0.073
       0.000  0.000  0.071  0.034 -0.997
       0.829  0.559 -0.000 -0.000 -0.000
     occupation matrix ns (before diag.):
       0.377 -0.000 -0.007  0.000  0.000
      -0.000  0.253 -0.000  0.000 -0.007
      -0.007 -0.000  0.273  0.008  0.000
       0.000  0.000  0.008  0.380 -0.000
       0.000 -0.007  0.000 -0.000  0.248
     SPIN  2
     eigenvalues:
       0.243  0.258  0.272  0.378  0.380
     eigenvectors (columns):
       0.000 -0.000 -0.064 -0.998  0.029
       0.559  0.829 -0.000 -0.000  0.000
       0.000 -0.000 -0.995  0.061 -0.073
      -0.000  0.000  0.071 -0.034 -0.997
       0.829 -0.559  0.000  0.000 -0.000
     occupation matrix ns (before diag.):
       0.377  0.000 -0.007  0.000 -0.000
       0.000  0.253  0.000 -0.000 -0.007
      -0.007  0.000  0.273  0.008 -0.000
       0.000 -0.000  0.008  0.380  0.000
      -0.000 -0.007 -0.000  0.000  0.248
     ------------------------ ATOM    4 ------------------------
     Tr[ns(  4)] (up, down, total) =   1.53092  1.53092  3.06184
     Atomic magnetic moment for atom   4 =  -0.00000
     SPIN  1
     eigenvalues:
       0.243  0.258  0.272  0.378  0.380
     eigenvectors (columns):
      -0.000 -0.000  0.064 -0.998 -0.029
      -0.559 -0.829 -0.000 -0.000 -0.000
       0.000  0.000 -0.995 -0.061 -0.073
       0.000  0.000 -0.071 -0.034  0.997
       0.829 -0.559 -0.000 -0.000  0.000
     occupation matrix ns (before diag.):
       0.377  0.000  0.007  0.000  0.000
       0.000  0.253  0.000 -0.000  0.007
       0.007  0.000  0.273 -0.008  0.000
       0.000 -0.000 -0.008  0.380  0.000
       0.000  0.007  0.000  0.000  0.248
     SPIN  2
     eigenvalues:
       0.243  0.258  0.272  0.378  0.380
     eigenvectors (columns):
       0.000  0.000  0.064  0.998  0.029
      -0.559 -0.829  0.000 -0.000 -0.000
      -0.000 -0.000 -0.995  0.062  0.073
      -0.000 -0.000 -0.071  0.034 -0.997
       0.829 -0.559  0.000 -0.000 -0.000
     occupation matrix ns (before diag.):
       0.377 -0.000  0.007  0.000 -0.000
      -0.000  0.253 -0.000  0.000  0.007
       0.007 -0.000  0.273 -0.008 -0.000
       0.000  0.000 -0.008  0.380  0.000
      -0.000  0.007 -0.000  0.000  0.248
     ------------------------ ATOM    5 ------------------------
     Tr[ns(  5)] (up, down, total) =   2.46171  2.46169  4.92341
     Atomic magnetic moment for atom   5 =   0.00002
     SPIN  1
     eigenvalues:
       0.770  0.844  0.847
     eigenvectors (columns):
       0.016  1.000 -0.002
       0.000  0.002  1.000
       1.000 -0.016  0.000
     occupation matrix ns (before diag.):
       0.844 -0.000 -0.001
      -0.000  0.847 -0.000
      -0.001 -0.000  0.770
     SPIN  2
     eigenvalues:
       0.770  0.844  0.847
     eigenvectors (columns):
       0.016 -1.000 -0.002
      -0.000  0.002 -1.000
       1.000  0.016  0.000
     occupation matrix ns (before diag.):
       0.844  0.000 -0.001
       0.000  0.847  0.000
      -0.001  0.000  0.770
     ------------------------ ATOM    6 ------------------------
     Tr[ns(  6)] (up, down, total) =   2.45669  2.45669  4.91338
     Atomic magnetic moment for atom   6 =  -0.00001
     SPIN  1
     eigenvalues:
       0.763  0.845  0.849
     eigenvectors (columns):
       1.000  0.000 -0.003
      -0.000  1.000  0.001
      -0.003  0.001 -1.000
     occupation matrix ns (before diag.):
       0.763  0.000  0.000
       0.000  0.845 -0.000
       0.000 -0.000  0.849
     SPIN  2
     eigenvalues:
       0.763  0.845  0.849
     eigenvectors (columns):
       1.000  0.000  0.003
       0.000 -1.000  0.001
      -0.003  0.001  1.000
     occupation matrix ns (before diag.):
       0.763 -0.000  0.000
      -0.000  0.845  0.000
       0.000  0.000  0.849
     ------------------------ ATOM    7 ------------------------
     Tr[ns(  7)] (up, down, total) =   2.48908  2.48908  4.97817
     Atomic magnetic moment for atom   7 =   0.00000
     SPIN  1
     eigenvalues:
       0.765  0.861  0.863
     eigenvectors (columns):
      -0.029  0.956 -0.292
      -0.999 -0.034 -0.013
       0.022 -0.292 -0.956
     occupation matrix ns (before diag.):
       0.861 -0.003  0.001
      -0.003  0.765  0.002
       0.001  0.002  0.863
     SPIN  2
     eigenvalues:
       0.765  0.861  0.863
     eigenvectors (columns):
      -0.029  0.956 -0.293
      -0.999 -0.034 -0.013
       0.022 -0.292 -0.956
     occupation matrix ns (before diag.):
       0.861 -0.003  0.001
      -0.003  0.765  0.002
       0.001  0.002  0.863
     ------------------------ ATOM    8 ------------------------
     Tr[ns(  8)] (up, down, total) =   2.46173  2.46172  4.92344
     Atomic magnetic moment for atom   8 =   0.00001
     SPIN  1
     eigenvalues:
       0.770  0.844  0.847
     eigenvectors (columns):
      -0.016  1.000 -0.000
      -0.000  0.000  1.000
       1.000  0.016 -0.000
     occupation matrix ns (before diag.):
       0.844 -0.000  0.001
      -0.000  0.847  0.000
       0.001  0.000  0.770
     SPIN  2
     eigenvalues:
       0.770  0.844  0.847
     eigenvectors (columns):
      -0.016 -1.000 -0.000
       0.000  0.000 -1.000
       1.000 -0.016  0.000
     occupation matrix ns (before diag.):
       0.844  0.000  0.001
       0.000  0.847 -0.000
       0.001 -0.000  0.770
     ------------------------ ATOM    9 ------------------------
     Tr[ns(  9)] (up, down, total) =   2.45670  2.45668  4.91338
     Atomic magnetic moment for atom   9 =   0.00001
     SPIN  1
     eigenvalues:
       0.763  0.845  0.849
     eigenvectors (columns):
      -1.000  0.000 -0.003
       0.000  1.000  0.002
      -0.003 -0.002  1.000
     occupation matrix ns (before diag.):
       0.763  0.000 -0.000
       0.000  0.845  0.000
      -0.000  0.000  0.849
     SPIN  2
     eigenvalues:
       0.763  0.845  0.849
     eigenvectors (columns):
      -1.000  0.000  0.003
      -0.000 -1.000  0.002
      -0.003 -0.002 -1.000
     occupation matrix ns (before diag.):
       0.763 -0.000 -0.000
      -0.000  0.845 -0.000
      -0.000 -0.000  0.849
     ------------------------ ATOM   10 ------------------------
     Tr[ns( 10)] (up, down, total) =   2.48908  2.48908  4.97816
     Atomic magnetic moment for atom  10 =   0.00000
     SPIN  1
     eigenvalues:
       0.765  0.861  0.863
     eigenvectors (columns):
      -0.029  0.956  0.292
       0.999  0.034 -0.013
       0.022 -0.292  0.956
     occupation matrix ns (before diag.):
       0.861  0.003  0.001
       0.003  0.765 -0.002
       0.001 -0.002  0.863
     SPIN  2
     eigenvalues:
       0.765  0.861  0.863
     eigenvectors (columns):
      -0.029  0.956  0.293
       0.999  0.034 -0.013
       0.022 -0.292  0.956
     occupation matrix ns (before diag.):
       0.861  0.003  0.001
       0.003  0.765 -0.002
       0.001 -0.002  0.863
     ------------------------ ATOM   11 ------------------------
     Tr[ns( 11)] (up, down, total) =   2.46172  2.46172  4.92344
     Atomic magnetic moment for atom  11 =   0.00000
     SPIN  1
     eigenvalues:
       0.770  0.844  0.847
     eigenvectors (columns):
       0.016  1.000 -0.002
       0.000  0.002  1.000
       1.000 -0.016  0.000
     occupation matrix ns (before diag.):
       0.844 -0.000 -0.001
      -0.000  0.847 -0.000
      -0.001 -0.000  0.770
     SPIN  2
     eigenvalues:
       0.770  0.844  0.847
     eigenvectors (columns):
       0.016 -1.000 -0.001
      -0.000  0.001 -1.000
       1.000  0.016  0.000
     occupation matrix ns (before diag.):
       0.844  0.000 -0.001
       0.000  0.847  0.000
      -0.001  0.000  0.770
     ------------------------ ATOM   12 ------------------------
     Tr[ns( 12)] (up, down, total) =   2.45670  2.45669  4.91339
     Atomic magnetic moment for atom  12 =   0.00001
     SPIN  1
     eigenvalues:
       0.763  0.845  0.849
     eigenvectors (columns):
       1.000  0.000  0.003
       0.000 -1.000  0.002
      -0.003  0.002  1.000
     occupation matrix ns (before diag.):
       0.763 -0.000  0.000
      -0.000  0.845  0.000
       0.000  0.000  0.849
     SPIN  2
     eigenvalues:
       0.763  0.845  0.849
     eigenvectors (columns):
       1.000  0.000 -0.003
       0.000  1.000  0.002
      -0.003  0.002 -1.000
     occupation matrix ns (before diag.):
       0.763 -0.000  0.000
      -0.000  0.845 -0.000
       0.000 -0.000  0.849
     ------------------------ ATOM   13 ------------------------
     Tr[ns( 13)] (up, down, total) =   2.46173  2.46170  4.92343
     Atomic magnetic moment for atom  13 =   0.00003
     SPIN  1
     eigenvalues:
       0.770  0.844  0.847
     eigenvectors (columns):
      -0.016 -1.000  0.000
       0.000 -0.000 -1.000
       1.000 -0.016  0.000
     occupation matrix ns (before diag.):
       0.844 -0.000  0.001
      -0.000  0.847 -0.000
       0.001 -0.000  0.770
     SPIN  2
     eigenvalues:
       0.770  0.844  0.847
     eigenvectors (columns):
      -0.016  1.000  0.000
      -0.000 -0.000  1.000
       1.000  0.016  0.000
     occupation matrix ns (before diag.):
       0.844  0.000  0.001
       0.000  0.847  0.000
       0.001  0.000  0.770
     ------------------------ ATOM   14 ------------------------
     Tr[ns( 14)] (up, down, total) =   2.48909  2.48908  4.97817
     Atomic magnetic moment for atom  14 =   0.00001
     SPIN  1
     eigenvalues:
       0.765  0.861  0.863
     eigenvectors (columns):
       0.029  0.956  0.292
      -0.999  0.034 -0.013
       0.022  0.292 -0.956
     occupation matrix ns (before diag.):
       0.861  0.003 -0.001
       0.003  0.765  0.002
      -0.001  0.002  0.863
     SPIN  2
     eigenvalues:
       0.765  0.861  0.863
     eigenvectors (columns):
       0.029  0.956  0.293
      -0.999  0.034 -0.013
       0.022  0.292 -0.956
     occupation matrix ns (before diag.):
       0.861  0.003 -0.001
       0.003  0.765  0.002
      -0.001  0.002  0.863
     ------------------------ ATOM   15 ------------------------
     Tr[ns( 15)] (up, down, total) =   2.45670  2.45668  4.91338
     Atomic magnetic moment for atom  15 =   0.00002
     SPIN  1
     eigenvalues:
       0.763  0.845  0.849
     eigenvectors (columns):
      -1.000 -0.000 -0.003
      -0.000  1.000  0.000
      -0.003 -0.000  1.000
     occupation matrix ns (before diag.):
       0.763 -0.000 -0.000
      -0.000  0.845  0.000
      -0.000  0.000  0.849
     SPIN  2
     eigenvalues:
       0.763  0.845  0.849
     eigenvectors (columns):
      -1.000 -0.000  0.003
       0.000 -1.000  0.000
      -0.003 -0.000 -1.000
     occupation matrix ns (before diag.):
       0.763  0.000 -0.000
       0.000  0.845 -0.000
      -0.000 -0.000  0.849
     ------------------------ ATOM   16 ------------------------
     Tr[ns( 16)] (up, down, total) =   2.48909  2.48908  4.97816
     Atomic magnetic moment for atom  16 =   0.00001
     SPIN  1
     eigenvalues:
       0.765  0.861  0.863
     eigenvectors (columns):
       0.029  0.956 -0.292
       0.999 -0.034 -0.013
       0.022  0.292  0.956
     occupation matrix ns (before diag.):
       0.861 -0.003 -0.001
      -0.003  0.765 -0.002
      -0.001 -0.002  0.863
     SPIN  2
     eigenvalues:
       0.765  0.861  0.863
     eigenvectors (columns):
       0.029  0.956 -0.293
       0.999 -0.034 -0.013
       0.022  0.292  0.956
     occupation matrix ns (before diag.):
       0.861 -0.003 -0.001
      -0.003  0.765 -0.002
      -0.001 -0.002  0.863

     Number of occupied Hubbard levels =   71.5073

 ------ SPIN UP ------------


          k = 0.0000 0.0000 0.0000 ( 11839 PWs)   bands (ev):

   -71.3781 -71.3490 -71.3453 -71.3141 -35.4232 -35.4123 -35.4021 -35.3927
   -35.3870 -35.3845 -35.3784 -35.3777 -35.3740 -35.3698 -35.3544 -35.3487
   -11.7630 -11.3815 -11.3192 -10.8136 -10.7600 -10.5865 -10.5392 -10.5361
    -9.8801  -9.8371  -9.7394  -9.7014  -2.3208  -2.2875  -2.0388  -2.0166
    -0.5219   0.6570   0.8089   1.0959   1.0992   1.1596   1.1926   1.2609
     1.3929   1.5278   1.6341   1.7344   1.7962   1.8789   1.9334   2.0034
     2.0577   2.2157   2.2895   2.2918   2.5672   2.6629   2.6750   2.7040
     2.7447   2.8875   2.9614   2.9681   3.0047   3.0155   3.2062   4.0892
     7.2394   7.3301   7.4153   7.9694   8.0429   9.4051   9.8229   9.8731
     9.9410   9.9826  10.0121  10.4432  10.4783  10.6282  10.7306  10.7589
    11.8881  12.8285  13.3865  13.4542  15.6663

          k = 0.0000 0.0000 0.4807 ( 11878 PWs)   bands (ev):

   -71.3881 -71.3608 -71.3569 -71.3281 -35.4207 -35.4104 -35.3981 -35.3904
   -35.3789 -35.3749 -35.3747 -35.3694 -35.3665 -35.3647 -35.3524 -35.3454
   -11.6079 -11.2504 -11.1637 -10.8025 -10.2886 -10.2455 -10.2243 -10.2195
    -9.8626  -9.8192  -9.7241  -9.6854  -2.3050  -2.2752  -2.0074  -1.9848
    -0.4888  -0.4160  -0.3784  -0.0436  -0.0326   0.1878   0.2130   0.7518
     0.7521   1.1902   1.3289   1.4237   1.4922   1.7331   1.7706   2.0237
     2.0989   2.1203   2.2492   2.2532   2.3632   2.5318   2.5345   2.5775
     2.6665   2.9037   3.0216   3.4028   3.4104   3.4993   3.5146   4.0921
     7.2643   8.2614   8.2829   8.3011   8.3206   9.4185   9.7823   9.8471
     9.8523  10.1352  10.1889  10.4843  10.7230  11.5817  11.8162  12.2331
    13.7284  14.1046  14.5007  14.8203  15.9420

          k = 0.0000 0.0000-0.9614 ( 11894 PWs)   bands (ev):

   -71.3988 -71.3726 -71.3685 -71.3389 -35.4176 -35.4071 -35.3950 -35.3847
   -35.3720 -35.3716 -35.3680 -35.3638 -35.3633 -35.3574 -35.3502 -35.3415
   -11.4906 -11.1706 -11.0708 -10.7928  -9.8826  -9.8352  -9.7559  -9.7552
    -9.7135  -9.7108  -9.7084  -9.6686  -2.2915  -2.2580  -1.9969  -1.9856
    -1.4541  -1.4451  -1.4029  -1.4012  -0.4618  -0.3264  -0.2918  -0.2146
    -0.1615   1.2628   1.4205   1.5484   1.6516   1.6621   1.6756   1.6954
     1.7234   2.0468   2.0680   2.0819   2.0925   2.2697   2.2725   2.3274
     2.5320   2.9101   3.0287   3.9771   4.0058   4.0962   4.1128   4.1282
     7.2640   9.1357   9.1569   9.1825   9.2065   9.4650   9.8561   9.9410
    10.1039  10.3332  10.4281  10.5320  10.6888  11.7016  12.0720  12.9753
    15.2373  15.4199  15.4489  15.6933  16.2495

          k = 0.0000 0.2445 0.0000 ( 11890 PWs)   bands (ev):

   -71.3738 -71.3533 -71.3414 -71.3197 -35.4183 -35.4085 -35.4036 -35.3945
   -35.3879 -35.3855 -35.3781 -35.3771 -35.3750 -35.3710 -35.3536 -35.3496
   -11.6863 -11.4176 -11.2008 -10.7969 -10.7562 -10.5961 -10.5143 -10.5040
   -10.0576 -10.0245  -9.7339  -9.7071  -2.3147  -2.2959  -1.5705  -1.4925
    -0.3773   0.5684   0.6656   0.8246   0.9797   1.0554   1.1097   1.1627
     1.2260   1.4316   1.4795   1.4904   1.8886   2.0048   2.0251   2.0765
     2.1190   2.2119   2.3532   2.3946   2.5029   2.5181   2.5516   2.6433
     2.7205   2.8444   2.9228   2.9666   2.9742   3.0671   3.1879   3.9278
     7.3379   7.3589   7.6140   8.2478   8.3140   9.0867   9.6004   9.6790
     9.8779   9.9463  10.0245  10.3634  10.5481  10.6205  11.0842  11.3242
    11.8231  13.0895  13.1721  13.8412  14.8634

          k = 0.0000 0.2445 0.4807 ( 11880 PWs)   bands (ev):

   -71.3840 -71.3648 -71.3529 -71.3326 -35.4168 -35.4071 -35.4009 -35.3929
   -35.3787 -35.3751 -35.3736 -35.3697 -35.3677 -35.3659 -35.3515 -35.3466
   -11.5284 -11.2791 -11.0185 -10.7317 -10.3435 -10.2757 -10.2190 -10.2079
   -10.0287  -9.9911  -9.7185  -9.6912  -2.3009  -2.2844  -1.5366  -1.4602
    -0.3748  -0.3461  -0.3389  -0.0929  -0.0558   0.1885   0.2091   0.7057
     0.7458   0.8434   0.9849   1.1888   1.4325   1.4730   1.7156   1.7814
     1.8573   2.1793   2.2881   2.3735   2.4844   2.4927   2.5259   2.7492
     2.8769   2.8897   2.9125   3.3579   3.3795   3.4974   3.5165   3.9339
     7.5854   8.2628   8.3017   8.4854   8.5204   9.1045   9.5521   9.5940
     9.9148  10.1365  10.1875  10.3919  11.1708  11.7357  12.3074  12.4805
    13.8968  14.0426  14.2052  14.9357  15.4510

          k = 0.0000 0.2445-0.9614 ( 11886 PWs)   bands (ev):

   -71.3948 -71.3763 -71.3642 -71.3434 -35.4138 -35.4038 -35.3980 -35.3878
   -35.3717 -35.3703 -35.3688 -35.3645 -35.3634 -35.3587 -35.3491 -35.3430
   -11.4135 -11.1941 -10.9183 -10.7161 -10.0660 -10.0371  -9.7729  -9.7595
    -9.7302  -9.7152  -9.7028  -9.6746  -2.2876  -2.2687  -1.6250  -1.5619
    -1.4596  -1.4120  -1.3401  -1.2708  -0.3566  -0.2991  -0.2820  -0.0597
    -0.0174   0.7412   1.0620   1.0703   1.1172   1.3958   1.4709   1.6367
     1.7220   1.7259   2.1500   2.2496   2.3180   2.3356   2.4563   2.7684
     2.8473   2.8957   2.9117   3.8648   3.8848   3.9317   4.1148   4.1254
     7.5905   9.0233   9.1848   9.2552   9.2593   9.3036   9.8392   9.9206
     9.9272  10.3265  10.4151  10.4307  11.1925  12.0251  12.4797  13.2336
    15.0925  15.1450  15.6104  15.6410  16.1698

          k = 0.0000-0.4891 0.0000 ( 11860 PWs)   bands (ev):

   -71.3636 -71.3635 -71.3313 -71.3311 -35.4098 -35.4097 -35.4007 -35.4005
   -35.3876 -35.3874 -35.3772 -35.3771 -35.3741 -35.3739 -35.3518 -35.3517
   -11.5303 -11.5302 -10.9495 -10.9494 -10.6409 -10.6408 -10.3745 -10.3744
   -10.3481 -10.3480  -9.7207  -9.7206  -2.3040  -2.3039  -0.4299  -0.4298
    -0.2459  -0.2458   0.0417   0.0417   0.9477   0.9478   1.1273   1.1273
     1.2008   1.2008   1.4710   1.4711   2.0729   2.0729   2.1097   2.1097
     2.1854   2.1854   2.2423   2.2424   2.4224   2.4224   2.5498   2.5498
     2.7393   2.7394   2.9619   2.9621   3.1433   3.1434   3.4691   3.4692
     7.3552   7.3552   8.3483   8.3484   8.9174   8.9175   8.9786   8.9787
     9.9442   9.9443  10.1503  10.1504  10.5968  10.5970  11.5850  11.5852
    12.4035  12.4037  13.8661  13.8662  15.1160

          k = 0.0000-0.4891 0.4807 ( 11880 PWs)   bands (ev):

   -71.3743 -71.3742 -71.3431 -71.3429 -35.4085 -35.4084 -35.3998 -35.3996
   -35.3772 -35.3770 -35.3707 -35.3705 -35.3684 -35.3682 -35.3493 -35.3491
   -11.3766 -11.3766 -10.6495 -10.6494 -10.4967 -10.4966 -10.1912 -10.1911
   -10.1648 -10.1647  -9.7050  -9.7049  -2.2925  -2.2924  -0.4738  -0.4738
    -0.3380  -0.3379  -0.1490  -0.1490   0.0068   0.0069   0.0591   0.0592
     0.2146   0.2147   1.1727   1.1727   1.2457   1.2457   1.4575   1.4576
     2.0534   2.0535   2.4230   2.4231   2.4400   2.4401   2.5374   2.5375
     3.1921   3.1922   3.2263   3.2264   3.3759   3.3760   3.5770   3.5770
     8.2108   8.2108   8.4209   8.4209   8.9919   8.9921   9.0315   9.0316
    10.0856  10.0856  10.2114  10.2115  11.6178  11.6180  13.3609  13.3611
    13.4898  13.4899  14.5658  14.5659  15.4873

          k = 0.0000-0.4891-0.9614 ( 11884 PWs)   bands (ev):

   -71.3855 -71.3853 -71.3539 -71.3537 -35.4056 -35.4054 -35.3957 -35.3956
   -35.3705 -35.3703 -35.3674 -35.3673 -35.3615 -35.3613 -35.3463 -35.3461
   -11.2756 -11.2755 -10.5150 -10.5148 -10.4462 -10.4461  -9.7689  -9.7688
    -9.7251  -9.7250  -9.6890  -9.6889  -2.2786  -2.2785  -1.4908  -1.4906
    -1.4362  -1.4360  -0.3175  -0.3173  -0.2754  -0.2753  -0.1059  -0.1058
     0.1121   0.1121   0.4438   0.4438   0.5042   0.5042   1.5679   1.5679
     1.7282   1.7283   2.2973   2.2974   2.3354   2.3355   2.4850   2.4851
     3.4588   3.4590   3.4901   3.4902   3.4917   3.4918   4.1197   4.1198
     8.3400   8.3400   9.1933   9.1934   9.5310   9.5311   9.5794   9.5795
    10.1328  10.1329  10.3895  10.3896  11.8108  11.8110  14.0366  14.0367
    14.1756  14.1757  15.8499  15.8500  16.1147

          k = 0.2500 0.0000 0.0000 ( 11841 PWs)   bands (ev):

   -71.3731 -71.3501 -71.3444 -71.3202 -35.4216 -35.4139 -35.4008 -35.3942
   -35.3857 -35.3830 -35.3791 -35.3756 -35.3736 -35.3662 -35.3577 -35.3516
   -11.6680 -11.3569 -11.2399 -10.7930 -10.7389 -10.5496 -10.5456 -10.5242
    -9.9713  -9.9476  -9.8724  -9.8432  -2.0359  -2.0201  -1.7677  -1.7154
    -0.3613   0.6529   0.6722   0.8255   0.9107   1.0261   1.1127   1.1936
     1.2563   1.3225   1.4840   1.7903   1.8493   1.8969   1.9367   2.0162
     2.0509   2.2294   2.3454   2.5372   2.5831   2.5974   2.6506   2.6575
     2.7476   2.7735   2.7816   2.8380   2.8844   2.9272   3.0694   3.9559
     7.6579   7.7362   7.7893   7.9834   8.0341   9.4315   9.5207   9.5559
     9.5900   9.9276   9.9768  10.2426  10.6035  10.7187  11.0604  11.3226
    11.8239  13.0885  13.1315  13.9204  14.9245

          k = 0.2500 0.0000 0.4807 ( 11853 PWs)   bands (ev):

   -71.3833 -71.3614 -71.3561 -71.3331 -35.4191 -35.4119 -35.3970 -35.3915
   -35.3783 -35.3743 -35.3708 -35.3706 -35.3662 -35.3629 -35.3556 -35.3484
   -11.5034 -11.1953 -11.0808 -10.7312 -10.3307 -10.2438 -10.2284 -10.2186
    -9.9535  -9.9236  -9.8553  -9.8253  -2.0068  -1.9896  -1.7493  -1.6994
    -0.4177  -0.3856  -0.3269  -0.0873  -0.0775   0.3583   0.3702   0.7453
     0.7555   0.8600   0.9430   1.1921   1.3245   1.3288   1.6534   1.6899
     1.8192   2.0632   2.1258   2.2183   2.5583   2.5883   2.6435   2.8005
     2.8366   2.9571   2.9938   3.3749   3.4148   3.4730   3.4823   3.9602
     7.6620   8.2876   8.3043   8.5002   8.5291   9.4683   9.5324   9.8142
     9.8198   9.8336   9.8607  10.2821  11.1148  11.5848  12.5228  12.6170
    13.9139  14.0641  14.4956  14.6541  15.4999

          k = 0.2500 0.0000-0.9614 ( 11906 PWs)   bands (ev):

   -71.3941 -71.3729 -71.3675 -71.3439 -35.4161 -35.4086 -35.3937 -35.3864
   -35.3710 -35.3679 -35.3667 -35.3653 -35.3599 -35.3591 -35.3531 -35.3447
   -11.3824 -11.0959 -10.9944 -10.7228  -9.9615  -9.9552  -9.8688  -9.8419
    -9.7498  -9.7477  -9.7199  -9.7173  -2.0014  -1.9893  -1.7234  -1.6691
    -1.4483  -1.4401  -1.4154  -1.4115  -0.3007  -0.2089  -0.1695  -0.1594
    -0.1309   0.8555   1.0693   1.0832   1.0857   1.3615   1.3715   1.5327
     1.6571   1.6822   2.1092   2.1570   2.2197   2.2631   2.6467   2.8333
     2.8354   2.9469   2.9973   3.9592   3.9798   3.9967   3.9987   4.0067
     7.6651   9.1640   9.1866   9.2910   9.3122   9.4680   9.5734   9.9891
    10.0861  10.1395  10.1665  10.3112  11.0627  11.6564  12.9324  13.4485
    15.2659  15.4817  15.5885  15.7433  15.8801

          k = 0.2500 0.2445 0.0000 ( 11848 PWs)   bands (ev):

   -71.3689 -71.3487 -71.3462 -71.3252 -35.4172 -35.4101 -35.4024 -35.3960
   -35.3865 -35.3840 -35.3796 -35.3766 -35.3727 -35.3673 -35.3569 -35.3526
   -11.5817 -11.2789 -11.2399 -10.8323 -10.6868 -10.5564 -10.5090 -10.5062
   -10.0543 -10.0390  -9.9665  -9.9369  -1.7608  -1.7474  -1.5612  -1.4902
    -0.2135   0.5584   0.5852   0.8221   0.8685   0.9320   0.9747   1.0692
     1.1128   1.2745   1.3308   1.4445   1.6472   1.8998   2.0503   2.0919
     2.1191   2.2022   2.2330   2.5184   2.5196   2.5516   2.6059   2.6449
     2.6805   2.7588   2.8086   2.9032   2.9382   2.9994   3.0620   3.8241
     7.7405   7.7619   7.9339   8.2630   8.3059   9.2252   9.4986   9.5633
     9.6102   9.6387   9.6843  10.1117  10.8212  11.0415  11.0697  11.7631
    11.7708  13.3288  13.5784  13.6263  15.0135

          k = 0.2500 0.2445 0.4807 ( 11876 PWs)   bands (ev):

   -71.3792 -71.3601 -71.3574 -71.3375 -35.4155 -35.4086 -35.3999 -35.3941
   -35.3780 -35.3745 -35.3712 -35.3698 -35.3673 -35.3640 -35.3546 -35.3496
   -11.4093 -11.1131 -11.0507 -10.6743 -10.3903 -10.2633 -10.2258 -10.2107
   -10.0234 -10.0015  -9.9470  -9.9185  -1.7446  -1.7344  -1.5297  -1.4568
    -0.3759  -0.3442  -0.1817  -0.1321  -0.1082   0.3581   0.3725   0.6732
     0.7505   0.8831   0.9220   0.9791   1.0535   1.2545   1.2559   1.6201
     1.6410   1.7886   1.8299   2.1218   2.7078   2.7861   2.8195   2.8531
     2.8944   2.9608   3.0382   3.3439   3.3837   3.4662   3.4812   3.8306
     7.9146   8.4551   8.4803   8.5399   8.5508   9.2411   9.5323   9.5840
     9.6081   9.8238   9.8378  10.1396  11.7350  12.2563  12.5230  12.7004
    13.9287  14.1657  14.3057  14.6216  15.5177

          k = 0.2500 0.2445-0.9614 ( 11872 PWs)   bands (ev):

   -71.3900 -71.3713 -71.3686 -71.3482 -35.4124 -35.4053 -35.3967 -35.3895
   -35.3706 -35.3676 -35.3668 -35.3649 -35.3610 -35.3603 -35.3520 -35.3461
   -11.2872 -11.0193 -10.9442 -10.6635 -10.0913 -10.0484  -9.9558  -9.9163
    -9.7656  -9.7519  -9.7359  -9.7217  -1.7201  -1.7191  -1.6195  -1.5506
    -1.4544  -1.4219  -1.3349  -1.2791  -0.1875  -0.1400  -0.1214  -0.0555
    -0.0238   0.7818   0.9177   1.0208   1.0395   1.1114   1.1233   1.1525
     1.1535   1.4103   1.4457   2.1210   2.7245   2.7542   2.8379   2.8636
     2.8892   2.9455   3.0556   3.8238   3.8682   3.8748   3.9971   4.0092
     7.9215   9.1678   9.2624   9.3047   9.3143   9.3802   9.5572   9.8631
     9.9148  10.1406  10.1576  10.1667  11.7009  12.4393  12.8825  13.5758
    15.1233  15.1491  15.6972  15.7133  15.8683

          k = 0.2500-0.4891 0.0000 ( 11856 PWs)   bands (ev):

   -71.3589 -71.3588 -71.3362 -71.3360 -35.4088 -35.4087 -35.4022 -35.4021
   -35.3861 -35.3860 -35.3787 -35.3786 -35.3702 -35.3701 -35.3550 -35.3548
   -11.4046 -11.4045 -10.9900 -10.9899 -10.5880 -10.5880 -10.3704 -10.3703
   -10.3526 -10.3526  -9.9545  -9.9544  -1.7478  -1.7477  -0.4163  -0.4162
    -0.3126  -0.3125   0.2384   0.2385   0.8130   0.8130   0.9626   0.9626
     1.1349   1.1350   1.4788   1.4788   1.5458   1.5458   2.0044   2.0044
     2.2525   2.2527   2.2925   2.2926   2.4540   2.4541   2.6149   2.6150
     2.7478   2.7480   2.9318   2.9320   3.0091   3.0091   3.4367   3.4368
     7.7548   7.7549   8.5553   8.5554   8.9366   8.9367   8.9751   8.9752
     9.5670   9.5671   9.8127   9.8127  10.9797  10.9798  11.5421  11.5422
    12.8358  12.8360  14.0555  14.0556  14.8194

          k = 0.2500-0.4891 0.4807 ( 11888 PWs)   bands (ev):

   -71.3697 -71.3695 -71.3477 -71.3475 -35.4074 -35.4073 -35.4012 -35.4010
   -35.3764 -35.3763 -35.3701 -35.3700 -35.3669 -35.3667 -35.3523 -35.3522
   -11.2259 -11.2259 -10.6895 -10.6894 -10.4689 -10.4688 -10.1875 -10.1874
   -10.1736 -10.1735  -9.9350  -9.9349  -1.7342  -1.7341  -0.4625  -0.4625
    -0.3793  -0.3792  -0.1539  -0.1538  -0.0781  -0.0780   0.2751   0.2751
     0.3805   0.3806   0.9912   0.9913   1.1548   1.1548   1.2492   1.2492
     1.5121   1.5121   1.7661   1.7662   2.8266   2.8267   2.9300   2.9301
     3.1828   3.1829   3.2378   3.2379   3.3542   3.3542   3.5343   3.5344
     8.4465   8.4466   8.6169   8.6170   9.0057   9.0058   9.0312   9.0313
     9.7929   9.7930   9.8600   9.8601  12.4026  12.4028  13.3951  13.3953
    13.4835  13.4837  14.7280  14.7283  15.1113

          k = 0.2500-0.4891-0.9614 ( 11868 PWs)   bands (ev):

   -71.3806 -71.3805 -71.3585 -71.3583 -35.4044 -35.4042 -35.3973 -35.3972
   -35.3693 -35.3692 -35.3644 -35.3643 -35.3626 -35.3625 -35.3493 -35.3492
   -11.1139 -11.1138 -10.5436 -10.5435 -10.4283 -10.4282  -9.9411  -9.9410
    -9.7613  -9.7612  -9.7314  -9.7312  -1.7097  -1.7096  -1.4853  -1.4852
    -1.4475  -1.4474  -0.2685  -0.2684  -0.1828  -0.1828  -0.1427  -0.1427
     0.3096   0.3096   0.4506   0.4506   0.4972   0.4973   1.0440   1.0441
     1.1232   1.1233   1.6387   1.6388   2.8629   2.8630   2.9347   2.9348
     3.4079   3.4080   3.4846   3.4846   3.5040   3.5041   4.0026   4.0028
     8.5552   8.5553   9.3203   9.3204   9.5394   9.5395   9.5770   9.5771
     9.8224   9.8225  10.1578  10.1579  12.6032  12.6034  14.0291  14.0293
    14.2258  14.2260  15.7333  15.7334  16.0877

          k =-0.5000 0.0000 0.0000 ( 11846 PWs)   bands (ev):

   -71.3616 -71.3614 -71.3329 -71.3328 -35.4177 -35.4176 -35.3977 -35.3975
   -35.3825 -35.3824 -35.3793 -35.3792 -35.3655 -35.3654 -35.3586 -35.3585
   -11.4813 -11.4812 -10.9463 -10.9462 -10.5793 -10.5792 -10.3864 -10.3862
   -10.3651 -10.3649  -9.8583  -9.8582  -2.0280  -2.0279  -0.4655  -0.4653
    -0.3717  -0.3715   0.1665   0.1666   0.7251   0.7253   1.1512   1.1513
     1.2379   1.2380   1.6766   1.6767   2.0354   2.0355   2.0806   2.0806
     2.1202   2.1203   2.2278   2.2279   2.5767   2.5767   2.5873   2.5874
     2.6600   2.6602   2.7324   2.7325   2.8954   2.8955   3.5405   3.5406
     8.0097   8.0098   8.5665   8.5667   8.6538   8.6541   8.6732   8.6734
     9.8500   9.8502   9.9598   9.9598  10.6812  10.6813  11.5843  11.5844
    12.4032  12.4034  13.8660  13.8661  15.1384

          k =-0.5000 0.0000 0.4807 ( 11858 PWs)   bands (ev):

   -71.3723 -71.3722 -71.3448 -71.3447 -35.4155 -35.4154 -35.3944 -35.3943
   -35.3759 -35.3757 -35.3697 -35.3696 -35.3629 -35.3628 -35.3555 -35.3554
   -11.3083 -11.3082 -10.6488 -10.6487 -10.4670 -10.4669 -10.1918 -10.1917
   -10.1809 -10.1808  -9.8408  -9.8407  -1.9988  -1.9987  -0.5260  -0.5259
    -0.3816  -0.3814  -0.3030  -0.3029  -0.0594  -0.0594   0.1920   0.1921
     0.6191   0.6191   0.9532   0.9532   1.0497   1.0497   1.3238   1.3239
     1.9917   1.9918   2.2240   2.2241   2.4572   2.4572   2.6369   2.6370
     3.2693   3.2694   3.3118   3.3119   3.3947   3.3948   3.5724   3.5724
     8.2790   8.2790   8.5832   8.5834   9.1151   9.1153   9.1387   9.1389
     9.8350   9.8350   9.8822   9.8822  11.4691  11.4692  13.6384  13.6386
    13.6862  13.6864  14.5711  14.5712  15.2581

          k =-0.5000 0.0000-0.9614 ( 11920 PWs)   bands (ev):

   -71.3834 -71.3833 -71.3557 -71.3556 -35.4124 -35.4123 -35.3903 -35.3902
   -35.3684 -35.3682 -35.3635 -35.3633 -35.3600 -35.3599 -35.3523 -35.3522
   -11.1929 -11.1929 -10.5210 -10.5208 -10.4349 -10.4347  -9.8578  -9.8577
    -9.7351  -9.7350  -9.7328  -9.7327  -1.9956  -1.9955  -1.4382  -1.4381
    -1.4276  -1.4275  -0.3905  -0.3904  -0.2941  -0.2939  -0.1835  -0.1834
     0.1761   0.1762   0.4125   0.4126   0.4134   0.4135   1.4584   1.4585
     1.6698   1.6699   2.2356   2.2356   2.2496   2.2497   2.5168   2.5169
     3.5276   3.5276   3.6131   3.6132   3.6245   3.6246   3.9878   3.9879
     8.5713   8.5715   9.1780   9.1780   9.6817   9.6819   9.6876   9.6878
     9.8934   9.8936  10.0444  10.0445  11.4812  11.4813  14.6377  14.6380
    14.6983  14.6986  15.5856  15.5862  16.0027

          k =-0.5000 0.2445 0.0000 ( 11838 PWs)   bands (ev):

   -71.3575 -71.3574 -71.3374 -71.3373 -35.4139 -35.4137 -35.3994 -35.3993
   -35.3832 -35.3830 -35.3803 -35.3802 -35.3646 -35.3645 -35.3598 -35.3597
   -11.3744 -11.3743 -10.9905 -10.9904 -10.5325 -10.5324 -10.3830 -10.3829
   -10.3689 -10.3687 -10.0360 -10.0359  -1.5447  -1.5446  -0.4585  -0.4583
    -0.3875  -0.3874   0.3202   0.3203   0.6389   0.6390   0.9500   0.9501
     1.1145   1.1146   1.5267   1.5267   1.7098   1.7099   1.9264   1.9265
     2.2009   2.2010   2.3759   2.3759   2.5223   2.5223   2.5582   2.5584
     2.7195   2.7196   2.7285   2.7286   2.9836   2.9836   3.4833   3.4834
     8.2802   8.2802   8.6571   8.6573   8.6617   8.6620   8.7310   8.7312
     9.6272   9.6274   9.6655   9.6656  11.0049  11.0050  11.5401  11.5402
    12.8303  12.8305  14.0534  14.0535  14.8221

          k =-0.5000 0.2445 0.4807 ( 11856 PWs)   bands (ev):

   -71.3683 -71.3681 -71.3489 -71.3488 -35.4122 -35.4121 -35.3972 -35.3970
   -35.3754 -35.3753 -35.3709 -35.3708 -35.3619 -35.3618 -35.3567 -35.3566
   -11.1797 -11.1796 -10.6936 -10.6934 -10.4420 -10.4419 -10.2008 -10.2006
   -10.1821 -10.1820 -10.0079 -10.0078  -1.5148  -1.5147  -0.5079  -0.5078
[...]
     9.8224   9.8225  10.1577  10.1579  12.6032  12.6034  14.0291  14.0293
    14.2258  14.2260  15.7333  15.7334  16.0877

          k =-0.5000 0.0000 0.0000 ( 11846 PWs)   bands (ev):

   -71.3616 -71.3615 -71.3330 -71.3328 -35.4178 -35.4176 -35.3977 -35.3976
   -35.3826 -35.3825 -35.3793 -35.3792 -35.3655 -35.3654 -35.3586 -35.3586
   -11.4813 -11.4812 -10.9463 -10.9462 -10.5793 -10.5792 -10.3864 -10.3862
   -10.3650 -10.3649  -9.8582  -9.8581  -2.0280  -2.0279  -0.4655  -0.4653
    -0.3717  -0.3715   0.1665   0.1666   0.7252   0.7253   1.1512   1.1513
     1.2380   1.2381   1.6766   1.6768   2.0355   2.0356   2.0806   2.0807
     2.1203   2.1203   2.2279   2.2279   2.5767   2.5768   2.5873   2.5874
     2.6601   2.6602   2.7325   2.7326   2.8955   2.8955   3.5406   3.5407
     8.0095   8.0097   8.5665   8.5666   8.6539   8.6540   8.6732   8.6733
     9.8500   9.8501   9.9596   9.9598  10.6812  10.6813  11.5842  11.5844
    12.4032  12.4034  13.8660  13.8661  15.1385

          k =-0.5000 0.0000 0.4807 ( 11858 PWs)   bands (ev):

   -71.3723 -71.3722 -71.3448 -71.3447 -35.4156 -35.4154 -35.3944 -35.3943
   -35.3759 -35.3758 -35.3697 -35.3696 -35.3629 -35.3628 -35.3555 -35.3554
   -11.3082 -11.3082 -10.6488 -10.6487 -10.4670 -10.4669 -10.1918 -10.1917
   -10.1809 -10.1808  -9.8408  -9.8407  -1.9988  -1.9987  -0.5260  -0.5259
    -0.3816  -0.3814  -0.3029  -0.3029  -0.0594  -0.0594   0.1920   0.1921
     0.6191   0.6191   0.9532   0.9532   1.0497   1.0497   1.3238   1.3239
     1.9917   1.9918   2.2241   2.2242   2.4573   2.4573   2.6370   2.6371
     3.2693   3.2694   3.3118   3.3119   3.3948   3.3948   3.5724   3.5725
     8.2787   8.2789   8.5832   8.5833   9.1151   9.1152   9.1387   9.1388
     9.8348   9.8349   9.8821   9.8821  11.4690  11.4692  13.6384  13.6386
    13.6862  13.6864  14.5711  14.5712  15.2580

          k =-0.5000 0.0000-0.9614 ( 11920 PWs)   bands (ev):

   -71.3834 -71.3833 -71.3557 -71.3556 -35.4124 -35.4123 -35.3903 -35.3902
   -35.3684 -35.3683 -35.3635 -35.3634 -35.3600 -35.3599 -35.3523 -35.3522
   -11.1929 -11.1928 -10.5210 -10.5208 -10.4349 -10.4347  -9.8577  -9.8576
    -9.7350  -9.7349  -9.7328  -9.7326  -1.9956  -1.9955  -1.4382  -1.4381
    -1.4276  -1.4275  -0.3905  -0.3903  -0.2941  -0.2939  -0.1834  -0.1833
     0.1762   0.1763   0.4125   0.4126   0.4134   0.4135   1.4584   1.4586
     1.6699   1.6700   2.2356   2.2357   2.2497   2.2498   2.5169   2.5169
     3.5276   3.5277   3.6131   3.6132   3.6245   3.6246   3.9880   3.9881
     8.5713   8.5714   9.1778   9.1780   9.6817   9.6818   9.6877   9.6878
     9.8934   9.8935  10.0443  10.0444  11.4811  11.4813  14.6377  14.6380
    14.6983  14.6985  15.5857  15.5861  16.0027

          k =-0.5000 0.2445 0.0000 ( 11838 PWs)   bands (ev):

   -71.3575 -71.3574 -71.3374 -71.3373 -35.4139 -35.4138 -35.3994 -35.3993
   -35.3832 -35.3831 -35.3803 -35.3802 -35.3646 -35.3645 -35.3598 -35.3597
   -11.3744 -11.3743 -10.9905 -10.9904 -10.5325 -10.5324 -10.3830 -10.3829
   -10.3689 -10.3687 -10.0359 -10.0358  -1.5447  -1.5446  -0.4585  -0.4583
    -0.3875  -0.3874   0.3202   0.3203   0.6390   0.6390   0.9500   0.9501
     1.1145   1.1146   1.5267   1.5268   1.7098   1.7099   1.9265   1.9265
     2.2010   2.2011   2.3758   2.3759   2.5223   2.5224   2.5584   2.5584
     2.7196   2.7196   2.7286   2.7286   2.9836   2.9837   3.4833   3.4834
     8.2799   8.2801   8.6571   8.6572   8.6618   8.6619   8.7310   8.7311
     9.6272   9.6273   9.6653   9.6655  11.0048  11.0050  11.5401  11.5402
    12.8303  12.8305  14.0534  14.0535  14.8223

          k =-0.5000 0.2445 0.4807 ( 11856 PWs)   bands (ev):

   -71.3683 -71.3682 -71.3489 -71.3488 -35.4122 -35.4121 -35.3972 -35.3971
   -35.3754 -35.3753 -35.3709 -35.3708 -35.3619 -35.3619 -35.3567 -35.3566
   -11.1797 -11.1796 -10.6936 -10.6934 -10.4420 -10.4419 -10.2007 -10.2006
   -10.1821 -10.1820 -10.0079 -10.0078  -1.5148  -1.5147  -0.5079  -0.5078
    -0.3984  -0.3982  -0.2732  -0.2731  -0.0983  -0.0983   0.3417   0.3418
     0.6461   0.6462   0.8778   0.8778   0.9838   0.9838   1.0811   1.0812
     1.5165   1.5166   1.8253   1.8254   2.7888   2.7888   2.8613   2.8613
     3.2508   3.2508   3.3001   3.3002   3.3812   3.3813   3.5243   3.5243
     8.4811   8.4813   8.7262   8.7263   9.1121   9.1122   9.1445   9.1446
     9.5815   9.5816   9.6598   9.6599  12.1804  12.1805  13.6315  13.6317
    13.7087  13.7089  14.7325  14.7325  14.9094

          k =-0.5000 0.2445-0.9614 ( 11884 PWs)   bands (ev):

   -71.3792 -71.3791 -71.3597 -71.3596 -35.4090 -35.4089 -35.3934 -35.3933
   -35.3680 -35.3679 -35.3644 -35.3643 -35.3590 -35.3589 -35.3535 -35.3535
   -11.0551 -11.0550 -10.5532 -10.5530 -10.4167 -10.4165 -10.0322 -10.0321
    -9.7511  -9.7510  -9.7370  -9.7369  -1.6051  -1.6050  -1.4408  -1.4407
    -1.3232  -1.3231  -0.3847  -0.3845  -0.3105  -0.3104  -0.0379  -0.0378
     0.2932   0.2933   0.4012   0.4013   0.4575   0.4576   0.9997   0.9998
     1.1037   1.1038   1.6556   1.6556   2.8221   2.8221   2.8327   2.8328
     3.4662   3.4663   3.6022   3.6023   3.6249   3.6251   3.8796   3.8796
     8.7220   8.7221   9.2732   9.2734   9.6212   9.6213   9.6897   9.6898
     9.7236   9.7237   9.8940   9.8941  12.2521  12.2522  14.6123  14.6126
    14.7024  14.7027  15.1865  15.1866  16.0328

          k =-0.5000-0.4891 0.0000 ( 11788 PWs)   bands (ev):

   -71.3478 -71.3476 -71.3476 -71.3475 -35.4059 -35.4057 -35.4057 -35.4056
   -35.3825 -35.3824 -35.3823 -35.3823 -35.3624 -35.3623 -35.3622 -35.3622
   -11.1469 -11.1469 -11.1468 -11.1468 -10.3835 -10.3834 -10.3834 -10.3833
   -10.3451 -10.3451 -10.3450 -10.3449  -0.5121  -0.5120  -0.5119  -0.5118
    -0.2890  -0.2889  -0.2889  -0.2888   0.7604   0.7604   0.7604   0.7605
     1.0117   1.0118   1.0118   1.0119   1.7775   1.7776   1.7776   1.7777
     2.3443   2.3444   2.3444   2.3444   2.4628   2.4628   2.4629   2.4629
     2.7623   2.7624   2.7624   2.7624   3.2854   3.2855   3.2855   3.2856
     8.6501   8.6503   8.6503   8.6504   8.9587   8.9589   8.9590   8.9590
     9.1519   9.1520   9.1520   9.1521  11.3801  11.3803  11.3803  11.3804
    13.9591  13.9593  13.9593  13.9596  14.6054

          k =-0.5000-0.4891 0.4807 ( 11868 PWs)   bands (ev):

   -71.3587 -71.3586 -71.3585 -71.3584 -35.4045 -35.4044 -35.4043 -35.4043
   -35.3736 -35.3735 -35.3734 -35.3734 -35.3595 -35.3594 -35.3593 -35.3593
   -10.8875 -10.8875 -10.8874 -10.8874 -10.3365 -10.3365 -10.3364 -10.3364
   -10.1618 -10.1617 -10.1617 -10.1616  -0.5451  -0.5450  -0.5450  -0.5449
    -0.3017  -0.3016  -0.3016  -0.3015  -0.1118  -0.1118  -0.1117  -0.1117
     0.7539   0.7539   0.7539   0.7540   0.9351   0.9351   0.9351   0.9352
     1.2784   1.2784   1.2784   1.2785   3.1180   3.1181   3.1181   3.1182
     3.1966   3.1966   3.1967   3.1967   3.4088   3.4088   3.4089   3.4089
     8.9584   8.9585   8.9585   8.9586   9.0983   9.0984   9.0985   9.0985
     9.2304   9.2305   9.2305   9.2306  13.4119  13.4121  13.4121  13.4122
    13.9919  13.9921  13.9921  13.9924  15.1826

          k =-0.5000-0.4891-0.9614 ( 11864 PWs)   bands (ev):

   -71.3695 -71.3693 -71.3693 -71.3692 -35.4011 -35.4010 -35.4010 -35.4009
   -35.3665 -35.3664 -35.3663 -35.3663 -35.3565 -35.3564 -35.3563 -35.3562
   -10.7363 -10.7363 -10.7362 -10.7362 -10.3237 -10.3237 -10.3236 -10.3235
    -9.7466  -9.7465  -9.7465  -9.7464  -1.4709  -1.4708  -1.4708  -1.4707
    -0.4252  -0.4251  -0.4251  -0.4249  -0.1696  -0.1696  -0.1695  -0.1694
     0.3775   0.3776   0.3776   0.3777   0.4876   0.4876   0.4876   0.4878
     0.8383   0.8383   0.8384   0.8384   3.2394   3.2394   3.2394   3.2396
     3.4378   3.4379   3.4379   3.4380   3.6534   3.6534   3.6535   3.6535
     9.1375   9.1376   9.1377   9.1377   9.5558   9.5560   9.5560   9.5560
     9.7022   9.7023   9.7024   9.7024  13.8064  13.8066  13.8067  13.8068
    14.7246  14.7247  14.7248  14.7249  16.0953

          k = 0.0000 0.2445-0.4807 ( 11880 PWs)   bands (ev):

   -71.3840 -71.3648 -71.3529 -71.3326 -35.4168 -35.4072 -35.4009 -35.3930
   -35.3787 -35.3752 -35.3736 -35.3697 -35.3677 -35.3659 -35.3515 -35.3466
   -11.5284 -11.2791 -11.0184 -10.7317 -10.3435 -10.2756 -10.2190 -10.2080
   -10.0286  -9.9911  -9.7185  -9.6911  -2.3009  -2.2844  -1.5366  -1.4602
    -0.3749  -0.3461  -0.3389  -0.0929  -0.0557   0.1886   0.2090   0.7057
     0.7459   0.8434   0.9850   1.1888   1.4325   1.4730   1.7157   1.7814
     1.8573   2.1793   2.2882   2.3736   2.4844   2.4927   2.5259   2.7493
     2.8771   2.8897   2.9126   3.3580   3.3796   3.4975   3.5164   3.9340
     7.5853   8.2629   8.3016   8.4852   8.5203   9.1045   9.5519   9.5939
     9.9147  10.1364  10.1875  10.3918  11.1708  11.7357  12.3074  12.4805
    13.8968  14.0426  14.2052  14.9357  15.4510

          k = 0.2500 0.0000-0.4807 ( 11853 PWs)   bands (ev):

   -71.3834 -71.3614 -71.3561 -71.3331 -35.4192 -35.4119 -35.3970 -35.3915
   -35.3784 -35.3744 -35.3708 -35.3706 -35.3662 -35.3629 -35.3556 -35.3484
   -11.5034 -11.1953 -11.0808 -10.7312 -10.3307 -10.2438 -10.2284 -10.2186
    -9.9535  -9.9236  -9.8553  -9.8253  -2.0067  -1.9896  -1.7493  -1.6994
    -0.4177  -0.3856  -0.3269  -0.0873  -0.0774   0.3583   0.3702   0.7453
     0.7555   0.8600   0.9430   1.1921   1.3245   1.3288   1.6534   1.6899
     1.8193   2.0632   2.1258   2.2183   2.5584   2.5884   2.6435   2.8005
     2.8367   2.9571   2.9938   3.3750   3.4149   3.4730   3.4824   3.9603
     7.6619   8.2874   8.3041   8.5002   8.5291   9.4682   9.5324   9.8142
     9.8197   9.8336   9.8605  10.2821  11.1147  11.5848  12.5228  12.6170
    13.9139  14.0641  14.4956  14.6541  15.4999

          k = 0.2500-0.2445 0.0000 ( 11848 PWs)   bands (ev):

   -71.3689 -71.3488 -71.3462 -71.3252 -35.4172 -35.4101 -35.4024 -35.3960
   -35.3866 -35.3840 -35.3796 -35.3766 -35.3727 -35.3674 -35.3569 -35.3526
   -11.5817 -11.2789 -11.2399 -10.8323 -10.6868 -10.5564 -10.5090 -10.5062
   -10.0543 -10.0390  -9.9665  -9.9368  -1.7608  -1.7474  -1.5612  -1.4902
    -0.2135   0.5585   0.5852   0.8221   0.8686   0.9320   0.9747   1.0693
     1.1128   1.2746   1.3308   1.4445   1.6472   1.8999   2.0504   2.0919
     2.1193   2.2022   2.2330   2.5185   2.5197   2.5517   2.6060   2.6450
     2.6805   2.7588   2.8086   2.9032   2.9383   2.9995   3.0621   3.8241
     7.7405   7.7619   7.9339   8.2629   8.3057   9.2252   9.4985   9.5633
     9.6101   9.6386   9.6841  10.1116  10.8212  11.0415  11.0697  11.7631
    11.7708  13.3288  13.5783  13.6263  15.0135

          k = 0.2500-0.2445-0.4807 ( 11876 PWs)   bands (ev):

   -71.3793 -71.3601 -71.3574 -71.3375 -35.4155 -35.4086 -35.3999 -35.3942
   -35.3780 -35.3746 -35.3712 -35.3698 -35.3673 -35.3641 -35.3547 -35.3496
   -11.4093 -11.1131 -11.0507 -10.6743 -10.3903 -10.2633 -10.2258 -10.2107
   -10.0234 -10.0015  -9.9470  -9.9185  -1.7446  -1.7344  -1.5296  -1.4568
    -0.3759  -0.3442  -0.1817  -0.1321  -0.1082   0.3581   0.3725   0.6732
     0.7505   0.8831   0.9221   0.9792   1.0535   1.2545   1.2560   1.6201
     1.6410   1.7887   1.8300   2.1219   2.7078   2.7861   2.8196   2.8532
     2.8945   2.9608   3.0382   3.3441   3.3839   3.4662   3.4812   3.8306
     7.9145   8.4550   8.4802   8.5399   8.5506   9.2410   9.5322   9.5839
     9.6079   9.8238   9.8378  10.1396  11.7350  12.2563  12.5230  12.7004
    13.9287  14.1657  14.3057  14.6216  15.5178

          k = 0.2500 0.2445-0.4807 ( 11876 PWs)   bands (ev):

   -71.3793 -71.3601 -71.3574 -71.3375 -35.4155 -35.4086 -35.3999 -35.3942
   -35.3780 -35.3745 -35.3712 -35.3698 -35.3673 -35.3641 -35.3547 -35.3496
   -11.4093 -11.1131 -11.0507 -10.6743 -10.3903 -10.2632 -10.2258 -10.2108
   -10.0234 -10.0015  -9.9470  -9.9185  -1.7446  -1.7344  -1.5296  -1.4568
    -0.3759  -0.3442  -0.1817  -0.1320  -0.1082   0.3580   0.3726   0.6732
     0.7506   0.8831   0.9220   0.9792   1.0535   1.2545   1.2560   1.6201
     1.6411   1.7886   1.8300   2.1218   2.7079   2.7862   2.8197   2.8532
     2.8945   2.9608   3.0382   3.3441   3.3839   3.4662   3.4812   3.8307
     7.9145   8.4550   8.4802   8.5398   8.5507   9.2410   9.5322   9.5839
     9.6080   9.8237   9.8379  10.1396  11.7350  12.2563  12.5229  12.7004
    13.9287  14.1657  14.3057  14.6216  15.5178

          k =-0.2500 0.2445-0.4807 ( 11876 PWs)   bands (ev):

   -71.3793 -71.3601 -71.3574 -71.3375 -35.4155 -35.4086 -35.3999 -35.3942
   -35.3780 -35.3745 -35.3712 -35.3698 -35.3673 -35.3641 -35.3547 -35.3496
   -11.4093 -11.1131 -11.0507 -10.6743 -10.3903 -10.2632 -10.2258 -10.2108
   -10.0234 -10.0015  -9.9470  -9.9185  -1.7446  -1.7344  -1.5296  -1.4568
    -0.3759  -0.3442  -0.1816  -0.1321  -0.1082   0.3580   0.3726   0.6732
     0.7506   0.8831   0.9220   0.9792   1.0535   1.2545   1.2560   1.6200
     1.6411   1.7886   1.8300   2.1219   2.7078   2.7862   2.8196   2.8532
     2.8945   2.9608   3.0382   3.3441   3.3839   3.4662   3.4811   3.8307
     7.9145   8.4550   8.4801   8.5399   8.5507   9.2410   9.5322   9.5839
     9.6080   9.8237   9.8379  10.1396  11.7350  12.2563  12.5229  12.7004
    13.9287  14.1657  14.3057  14.6216  15.5178

          k = 0.2500-0.2445 0.9614 ( 11872 PWs)   bands (ev):

   -71.3901 -71.3713 -71.3686 -71.3482 -35.4124 -35.4053 -35.3968 -35.3895
   -35.3706 -35.3676 -35.3668 -35.3649 -35.3610 -35.3604 -35.3520 -35.3461
   -11.2872 -11.0193 -10.9442 -10.6635 -10.0913 -10.0484  -9.9558  -9.9163
    -9.7656  -9.7519  -9.7359  -9.7216  -1.7202  -1.7191  -1.6194  -1.5506
    -1.4544  -1.4219  -1.3349  -1.2791  -0.1875  -0.1400  -0.1214  -0.0555
    -0.0238   0.7818   0.9178   1.0209   1.0395   1.1114   1.1233   1.1525
     1.1536   1.4104   1.4457   2.1210   2.7246   2.7542   2.8380   2.8637
     2.8893   2.9455   3.0556   3.8238   3.8683   3.8749   3.9971   4.0092
     7.9214   9.1677   9.2623   9.3045   9.3143   9.3802   9.5571   9.8630
     9.9147  10.1406  10.1576  10.1667  11.7009  12.4393  12.8825  13.5757
    15.1233  15.1491  15.6972  15.7133  15.8682

          k = 0.2500 0.4891-0.4807 ( 11888 PWs)   bands (ev):

   -71.3697 -71.3695 -71.3477 -71.3475 -35.4075 -35.4073 -35.4012 -35.4010
   -35.3764 -35.3763 -35.3701 -35.3700 -35.3669 -35.3667 -35.3524 -35.3522
   -11.2259 -11.2258 -10.6895 -10.6894 -10.4689 -10.4688 -10.1875 -10.1874
   -10.1735 -10.1735  -9.9350  -9.9349  -1.7342  -1.7341  -0.4625  -0.4625
    -0.3793  -0.3792  -0.1538  -0.1538  -0.0781  -0.0780   0.2751   0.2751
     0.3805   0.3806   0.9912   0.9913   1.1548   1.1549   1.2492   1.2493
     1.5121   1.5121   1.7661   1.7662   2.8267   2.8267   2.9301   2.9301
     3.1830   3.1830   3.2379   3.2380   3.3542   3.3543   3.5343   3.5344
     8.4464   8.4466   8.6168   8.6170   9.0056   9.0057   9.0311   9.0312
     9.7929   9.7930   9.8599   9.8601  12.4026  12.4028  13.3951  13.3953
    13.4835  13.4837  14.7280  14.7283  15.1114

          k =-0.5000 0.2445-0.4807 ( 11856 PWs)   bands (ev):

   -71.3683 -71.3682 -71.3489 -71.3488 -35.4122 -35.4121 -35.3972 -35.3971
   -35.3755 -35.3753 -35.3709 -35.3708 -35.3619 -35.3619 -35.3567 -35.3566
   -11.1797 -11.1796 -10.6935 -10.6934 -10.4420 -10.4419 -10.2006 -10.2006
   -10.1822 -10.1821 -10.0079 -10.0078  -1.5148  -1.5147  -0.5079  -0.5078
    -0.3983  -0.3982  -0.2732  -0.2731  -0.0983  -0.0983   0.3417   0.3418
     0.6461   0.6462   0.8778   0.8778   0.9838   0.9839   1.0811   1.0811
     1.5165   1.5166   1.8254   1.8254   2.7888   2.7888   2.8613   2.8613
     3.2508   3.2508   3.3001   3.3002   3.3812   3.3813   3.5243   3.5244
     8.4811   8.4813   8.7262   8.7263   9.1120   9.1121   9.1446   9.1447
     9.5815   9.5816   9.6598   9.6598  12.1804  12.1805  13.6315  13.6317
    13.7087  13.7089  14.7325  14.7325  14.9092

     the Fermi energy is     5.3955 ev

!    total energy              =   -1131.74175692 Ry
     estimated scf accuracy    <       0.00000005 Ry
     smearing contrib. (-TS)   =      -0.00000000 Ry
     internal energy E=F+TS    =   -1131.74175692 Ry

     The total energy is F=E-TS. E is the sum of the following terms:
     one-electron contribution =    -490.02885033 Ry
     hartree contribution      =     294.19950603 Ry
     xc contribution           =    -254.19113800 Ry
     ewald contribution        =    -572.94613163 Ry
     Hubbard energy            =       5.19631786 Ry
     one-center paw contrib.   =    -113.97146084 Ry

     total magnetization       =     0.00 Bohr mag/cell
     absolute magnetization    =     0.00 Bohr mag/cell

     convergence has been achieved in  13 iterations

     Writing all to output data dir ./out/WO3.save/
 
     init_run     :      9.59s CPU     11.11s WALL (       1 calls)
     electrons    :     88.81s CPU    104.02s WALL (       1 calls)

     Called by init_run:
     wfcinit      :      7.31s CPU      8.61s WALL (       1 calls)
                                        8.61s GPU  (       1 calls)
     potinit      :      1.67s CPU      1.72s WALL (       1 calls)
     hinit0       :      0.45s CPU      0.57s WALL (       1 calls)

     Called by electrons:
     c_bands      :     65.61s CPU     80.44s WALL (      13 calls)
     sum_band     :     15.32s CPU     15.53s WALL (      13 calls)
     v_of_rho     :      0.60s CPU      0.64s WALL (      14 calls)
     newd         :      0.44s CPU      0.54s WALL (      14 calls)
                                        0.54s GPU  (      14 calls)
     PAW_pot      :      6.84s CPU      6.86s WALL (      14 calls)
     mix_rho      :      0.31s CPU      0.32s WALL (      13 calls)

     Called by c_bands:
     init_us_2    :      2.06s CPU      2.08s WALL (    2016 calls)
     init_us_2:gp :      2.04s CPU      2.06s WALL (    2016 calls)
     cegterg      :     58.02s CPU     71.68s WALL (     936 calls)

     Called by *egterg:
     cdiaghg      :     11.41s CPU     11.71s WALL (    4177 calls)
                                       11.68s GPU  (    4177 calls)
     h_psi        :     42.65s CPU     56.24s WALL (    4177 calls)
                                       56.19s GPU  (    4177 calls)
     s_psi        :      0.50s CPU      1.16s WALL (    4249 calls)
                                        1.08s GPU  (    4249 calls)
     g_psi        :      0.01s CPU      0.11s WALL (    3169 calls)
                                        0.09s GPU  (    3169 calls)

     Called by h_psi:
     h_psi:calbec :      1.07s CPU      1.13s WALL (    4177 calls)
                                        1.10s GPU  (    4177 calls)
     vloc_psi     :     29.79s CPU     30.45s WALL (    4177 calls)
                                       30.42s GPU  (    4177 calls)
     add_vuspsi   :      1.42s CPU      1.79s WALL (    4177 calls)
                                        1.77s GPU  (    4177 calls)
     vhpsi        :      6.65s CPU      7.26s WALL (    4177 calls)
                                        7.23s GPU  (    4177 calls)

     General routines
     calbec       :     10.04s CPU     10.32s WALL (   10298 calls)
     fft          :      1.22s CPU      1.35s WALL (     344 calls)
                                        0.92s GPU  (     316 calls)
     ffts         :      0.26s CPU      0.27s WALL (      54 calls)
                                        0.02s GPU  (      26 calls)
     fftw         :     27.60s CPU     31.09s WALL (   35714 calls)
                                       30.82s GPU  (   35714 calls)
     interpolate  :      0.70s CPU      0.71s WALL (      28 calls)
     davcio       :      0.01s CPU      0.63s WALL (      72 calls)
 
     Parallel routines

     Hubbard U routines
     new_ns       :      5.83s CPU      5.94s WALL (      13 calls)
     vhpsi        :      6.65s CPU      7.26s WALL (    4177 calls)
                                        7.23s GPU  (    4177 calls)
 
     PWSCF        :   1m39.05s CPU   1m59.04s WALL

 
   This run was terminated on:  16:53:32  30Nov2023            

=------------------------------------------------------------------------------=
   JOB DONE.
=------------------------------------------------------------------------------=
