
     Program PWSCF v.7.2 starts on 14Nov2023 at 21:10:27 

     This program is part of the open-source Quantum ESPRESSO suite
     for quantum simulation of materials; please cite
         "P. Giannozzi et al., J. Phys.:Condens. Matter 21 395502 (2009);
         "P. Giannozzi et al., J. Phys.:Condens. Matter 29 465901 (2017);
         "P. Giannozzi et al., J. Chem. Phys. 152 154105 (2020);
          URL http://www.quantum-espresso.org", 
     in publications or presentations arising from this work. More details at
     http://www.quantum-espresso.org/quote

     Parallel version (MPI & OpenMP), running on       4 processor cores
     Number of MPI processes:                 2
     Threads/MPI process:                     2

     MPI processes distributed on     1 nodes
     2249 MiB available memory on the printing compute node when the environment starts

     Waiting for input...
     Reading input from standard input

     Current dimensions of program PWSCF are:
     Max number of different atomic species (ntypx) = 10
     Max number of k-points (npk) =  40000
     Max angular momentum in pseudopotentials (lmaxx) =  4
     file C.pbe-n-kjpaw_psl.1.0.0.UPF: wavefunction(s)  2S 2P renormalized

     IMPORTANT: XC functional enforced from input :
     Exchange-correlation= PBE
                           (   1   4   3   4   0   0   0)
     Any further DFT definition will be discarded
     Please, verify this is what you really want


     R & G space division:  proc/nbgrp/npool/nimage =       2
     Subspace diagonalization in iterative solution of the eigenvalue problem:
     a serial algorithm will be used


     Parallelization info
     --------------------
     sticks:   dense  smooth     PW     G-vecs:    dense   smooth      PW
     Min         297     120     42                47799    12120    2286
     Max         298     121     43                47800    12141    2289
     Sum         595     241     85                95599    24261    4575

     Using Slab Decomposition


     Title: 
     graphene                                                                   


     bravais-lattice index     =           12
     lattice parameter (alat)  =       4.6487  a.u.
     unit-cell volume          =     707.3387 (a.u.)^3
     number of atoms/cell      =            2
     number of atomic types    =            1
     number of electrons       =         8.00
     number of Kohn-Sham states=            8
     kinetic-energy cutoff     =      40.0000  Ry
     charge density cutoff     =     400.0000  Ry
     scf convergence threshold =      1.0E-10
     mixing beta               =       0.3000
     number of iterations used =            8  plain     mixing
     energy convergence thresh.=      1.0E-05
     force convergence thresh. =      1.0E-04
     press convergence thresh. =      5.0E-01
     Exchange-correlation= PBE
                           (   1   4   3   4   0   0   0)
     nstep                     =         1000


     celldm(1)=   4.648726  celldm(2)=   1.000000  celldm(3)=   8.130081
     celldm(4)=  -0.500000  celldm(5)=   0.000000  celldm(6)=   0.000000

     crystal axes: (cart. coord. in units of alat)
               a(1) = (   1.000000   0.000000   0.000000 )  
               a(2) = (  -0.500000   0.866025   0.000000 )  
               a(3) = (   0.000000   0.000000   8.130081 )  

     reciprocal axes: (cart. coord. in units 2 pi/alat)
               b(1) = (  1.000000  0.577350 -0.000000 )  
               b(2) = (  0.000000  1.154701  0.000000 )  
               b(3) = (  0.000000 -0.000000  0.123000 )  


     PseudoPot. # 1 for C  read from file:
     ../pseudos/C.pbe-n-kjpaw_psl.1.0.0.UPF
     MD5 check sum: 5d2aebdfa2cae82b50a7e79e9516da0f
     Pseudo is Projector augmented-wave + core cor, Zval =  4.0
     Generated using "atomic" code by A. Dal Corso  v.5.1
     Shape of augmentation charge: PSQ
     Using radial grid of 1073 points,  4 beta functions with: 
                l(1) =   0
                l(2) =   0
                l(3) =   1
                l(4) =   1
     Q(r) pseudized with 0 coefficients 


     atomic species   valence    mass     pseudopotential
        C              4.00    12.01100     C ( 1.00)

     24 Sym. Ops., with inversion, found (18 have fractional translation)


                                    s                        frac. trans.

      isym =  1     identity                                     

 cryst.   s( 1) = (     1          0          0      )
                  (     0          1          0      )
                  (     0          0          1      )

 cart.    s( 1) = (  1.0000000  0.0000000  0.0000000 )
                  (  0.0000000  1.0000000  0.0000000 )
                  (  0.0000000  0.0000000  1.0000000 )


      isym =  2     180 deg rotation - cart. axis [0,0,1]        

 cryst.   s( 2) = (    -1          0          0      )    f =( -0.3333333 )
                  (     0         -1          0      )       (  0.3333333 )
                  (     0          0          1      )       (  0.0000000 )

 cart.    s( 2) = ( -1.0000000  0.0000000  0.0000000 )    f =( -0.5000000 )
                  (  0.0000000 -1.0000000  0.0000000 )       (  0.2886751 )
                  (  0.0000000  0.0000000  1.0000000 )       (  0.0000000 )


      isym =  3     180 deg rotation - cart. axis [0,1,0]        

 cryst.   s( 3) = (    -1          0          0      )    f =(  0.0000000 )
                  (     1          1          0      )       (  0.0000000 )
                  (     0          0         -1      )       (  0.5000000 )

 cart.    s( 3) = ( -1.0000000  0.0000000  0.0000000 )    f =(  0.0000000 )
                  (  0.0000000  1.0000000  0.0000000 )       (  0.0000000 )
                  (  0.0000000  0.0000000 -1.0000000 )       (  4.0650407 )


      isym =  4     180 deg rotation - cart. axis [1,0,0]        

 cryst.   s( 4) = (     1          0          0      )    f =( -0.3333333 )
                  (    -1         -1          0      )       (  0.3333333 )
                  (     0          0         -1      )       (  0.5000000 )

 cart.    s( 4) = (  1.0000000  0.0000000  0.0000000 )    f =( -0.5000000 )
                  (  0.0000000 -1.0000000  0.0000000 )       (  0.2886751 )
                  (  0.0000000  0.0000000 -1.0000000 )       (  4.0650407 )


      isym =  5      60 deg rotation - cryst. axis [0,0,1]       

 cryst.   s( 5) = (     1          1          0      )    f =( -0.3333333 )
                  (    -1          0          0      )       (  0.3333333 )
                  (     0          0          1      )       (  0.0000000 )

 cart.    s( 5) = (  0.5000000 -0.8660254  0.0000000 )    f =( -0.5000000 )
                  (  0.8660254  0.5000000  0.0000000 )       (  0.2886751 )
                  (  0.0000000  0.0000000  1.0000000 )       (  0.0000000 )


      isym =  6      60 deg rotation - cryst. axis [0,0,-1]      

 cryst.   s( 6) = (     0         -1          0      )    f =( -0.3333333 )
                  (     1          1          0      )       (  0.3333333 )
                  (     0          0          1      )       (  0.0000000 )

 cart.    s( 6) = (  0.5000000  0.8660254  0.0000000 )    f =( -0.5000000 )
                  ( -0.8660254  0.5000000  0.0000000 )       (  0.2886751 )
                  (  0.0000000  0.0000000  1.0000000 )       (  0.0000000 )


      isym =  7     120 deg rotation - cryst. axis [0,0,1]       

 cryst.   s( 7) = (     0          1          0      )
                  (    -1         -1          0      )
                  (     0          0          1      )

 cart.    s( 7) = ( -0.5000000 -0.8660254  0.0000000 )
                  (  0.8660254 -0.5000000  0.0000000 )
                  (  0.0000000  0.0000000  1.0000000 )


      isym =  8     120 deg rotation - cryst. axis [0,0,-1]      

 cryst.   s( 8) = (    -1         -1          0      )
                  (     1          0          0      )
                  (     0          0          1      )

 cart.    s( 8) = ( -0.5000000  0.8660254  0.0000000 )
                  ( -0.8660254 -0.5000000  0.0000000 )
                  (  0.0000000  0.0000000  1.0000000 )


      isym =  9     180 deg rotation - cryst. axis [1,-1,0]      

 cryst.   s( 9) = (     0         -1          0      )    f =(  0.0000000 )
                  (    -1          0          0      )       (  0.0000000 )
                  (     0          0         -1      )       (  0.5000000 )

 cart.    s( 9) = (  0.5000000 -0.8660254  0.0000000 )    f =(  0.0000000 )
                  ( -0.8660254 -0.5000000  0.0000000 )       (  0.0000000 )
                  (  0.0000000  0.0000000 -1.0000000 )       (  4.0650407 )


      isym = 10     180 deg rotation - cryst. axis [2,1,0]       

 cryst.   s(10) = (     1          1          0      )    f =(  0.0000000 )
                  (     0         -1          0      )       (  0.0000000 )
                  (     0          0         -1      )       (  0.5000000 )

 cart.    s(10) = (  0.5000000  0.8660254  0.0000000 )    f =(  0.0000000 )
                  (  0.8660254 -0.5000000  0.0000000 )       (  0.0000000 )
                  (  0.0000000  0.0000000 -1.0000000 )       (  4.0650407 )


      isym = 11     180 deg rotation - cryst. axis [0,1,0]       

 cryst.   s(11) = (    -1         -1          0      )    f =( -0.3333333 )
                  (     0          1          0      )       (  0.3333333 )
                  (     0          0         -1      )       (  0.5000000 )

 cart.    s(11) = ( -0.5000000 -0.8660254  0.0000000 )    f =( -0.5000000 )
                  ( -0.8660254  0.5000000  0.0000000 )       (  0.2886751 )
                  (  0.0000000  0.0000000 -1.0000000 )       (  4.0650407 )


      isym = 12     180 deg rotation - cryst. axis [1,1,0]       

 cryst.   s(12) = (     0          1          0      )    f =( -0.3333333 )
                  (     1          0          0      )       (  0.3333333 )
                  (     0          0         -1      )       (  0.5000000 )

 cart.    s(12) = ( -0.5000000  0.8660254  0.0000000 )    f =( -0.5000000 )
                  (  0.8660254  0.5000000  0.0000000 )       (  0.2886751 )
                  (  0.0000000  0.0000000 -1.0000000 )       (  4.0650407 )


      isym = 13     inversion                                    

 cryst.   s(13) = (    -1          0          0      )    f =( -0.3333333 )
                  (     0         -1          0      )       (  0.3333333 )
                  (     0          0         -1      )       (  0.5000000 )

 cart.    s(13) = ( -1.0000000  0.0000000  0.0000000 )    f =( -0.5000000 )
                  (  0.0000000 -1.0000000  0.0000000 )       (  0.2886751 )
                  (  0.0000000  0.0000000 -1.0000000 )       (  4.0650407 )


      isym = 14     inv. 180 deg rotation - cart. axis [0,0,1]   

 cryst.   s(14) = (     1          0          0      )    f =(  0.0000000 )
                  (     0          1          0      )       (  0.0000000 )
                  (     0          0         -1      )       (  0.5000000 )

 cart.    s(14) = (  1.0000000  0.0000000  0.0000000 )    f =(  0.0000000 )
                  (  0.0000000  1.0000000  0.0000000 )       (  0.0000000 )
                  (  0.0000000  0.0000000 -1.0000000 )       (  4.0650407 )


      isym = 15     inv. 180 deg rotation - cart. axis [0,1,0]   

 cryst.   s(15) = (     1          0          0      )    f =( -0.3333333 )
                  (    -1         -1          0      )       (  0.3333333 )
                  (     0          0          1      )       (  0.0000000 )

 cart.    s(15) = (  1.0000000  0.0000000  0.0000000 )    f =( -0.5000000 )
                  (  0.0000000 -1.0000000  0.0000000 )       (  0.2886751 )
                  (  0.0000000  0.0000000  1.0000000 )       (  0.0000000 )


      isym = 16     inv. 180 deg rotation - cart. axis [1,0,0]   

 cryst.   s(16) = (    -1          0          0      )
                  (     1          1          0      )
                  (     0          0          1      )

 cart.    s(16) = ( -1.0000000  0.0000000  0.0000000 )
                  (  0.0000000  1.0000000  0.0000000 )
                  (  0.0000000  0.0000000  1.0000000 )


      isym = 17     inv.  60 deg rotation - cryst. axis [0,0,1]  

 cryst.   s(17) = (    -1         -1          0      )    f =(  0.0000000 )
                  (     1          0          0      )       (  0.0000000 )
                  (     0          0         -1      )       (  0.5000000 )

 cart.    s(17) = ( -0.5000000  0.8660254  0.0000000 )    f =(  0.0000000 )
                  ( -0.8660254 -0.5000000  0.0000000 )       (  0.0000000 )
                  (  0.0000000  0.0000000 -1.0000000 )       (  4.0650407 )


      isym = 18     inv.  60 deg rotation - cryst. axis [0,0,-1] 

 cryst.   s(18) = (     0          1          0      )    f =(  0.0000000 )
                  (    -1         -1          0      )       (  0.0000000 )
                  (     0          0         -1      )       (  0.5000000 )

 cart.    s(18) = ( -0.5000000 -0.8660254  0.0000000 )    f =(  0.0000000 )
                  (  0.8660254 -0.5000000  0.0000000 )       (  0.0000000 )
                  (  0.0000000  0.0000000 -1.0000000 )       (  4.0650407 )


      isym = 19     inv. 120 deg rotation - cryst. axis [0,0,1]  

 cryst.   s(19) = (     0         -1          0      )    f =( -0.3333333 )
                  (     1          1          0      )       (  0.3333333 )
                  (     0          0         -1      )       (  0.5000000 )

 cart.    s(19) = (  0.5000000  0.8660254  0.0000000 )    f =( -0.5000000 )
                  ( -0.8660254  0.5000000  0.0000000 )       (  0.2886751 )
                  (  0.0000000  0.0000000 -1.0000000 )       (  4.0650407 )


      isym = 20     inv. 120 deg rotation - cryst. axis [0,0,-1] 

 cryst.   s(20) = (     1          1          0      )    f =( -0.3333333 )
                  (    -1          0          0      )       (  0.3333333 )
                  (     0          0         -1      )       (  0.5000000 )

 cart.    s(20) = (  0.5000000 -0.8660254  0.0000000 )    f =( -0.5000000 )
                  (  0.8660254  0.5000000  0.0000000 )       (  0.2886751 )
                  (  0.0000000  0.0000000 -1.0000000 )       (  4.0650407 )


      isym = 21     inv. 180 deg rotation - cryst. axis [1,-1,0] 

 cryst.   s(21) = (     0          1          0      )    f =( -0.3333333 )
                  (     1          0          0      )       (  0.3333333 )
                  (     0          0          1      )       (  0.0000000 )

 cart.    s(21) = ( -0.5000000  0.8660254  0.0000000 )    f =( -0.5000000 )
                  (  0.8660254  0.5000000  0.0000000 )       (  0.2886751 )
                  (  0.0000000  0.0000000  1.0000000 )       (  0.0000000 )


      isym = 22     inv. 180 deg rotation - cryst. axis [2,1,0]  

 cryst.   s(22) = (    -1         -1          0      )    f =( -0.3333333 )
                  (     0          1          0      )       (  0.3333333 )
                  (     0          0          1      )       (  0.0000000 )

 cart.    s(22) = ( -0.5000000 -0.8660254  0.0000000 )    f =( -0.5000000 )
                  ( -0.8660254  0.5000000  0.0000000 )       (  0.2886751 )
                  (  0.0000000  0.0000000  1.0000000 )       (  0.0000000 )


      isym = 23     inv. 180 deg rotation - cryst. axis [0,1,0]  

 cryst.   s(23) = (     1          1          0      )
                  (     0         -1          0      )
                  (     0          0          1      )

 cart.    s(23) = (  0.5000000  0.8660254  0.0000000 )
                  (  0.8660254 -0.5000000  0.0000000 )
                  (  0.0000000  0.0000000  1.0000000 )


      isym = 24     inv. 180 deg rotation - cryst. axis [1,1,0]  

 cryst.   s(24) = (     0         -1          0      )
                  (    -1          0          0      )
                  (     0          0          1      )

 cart.    s(24) = (  0.5000000 -0.8660254  0.0000000 )
                  ( -0.8660254 -0.5000000  0.0000000 )
                  (  0.0000000  0.0000000  1.0000000 )


     point group D_6h(6/mmm)
     there are 12 classes
     the character table:

       E     2C6   2C3   C2    3C2'  3C2'' i     2S3   2S6   s_h   3s_d  3s_v 
A_1g   1.00  1.00  1.00  1.00  1.00  1.00  1.00  1.00  1.00  1.00  1.00  1.00
A_2g   1.00  1.00  1.00  1.00 -1.00 -1.00  1.00  1.00  1.00  1.00 -1.00 -1.00
B_1g   1.00 -1.00  1.00 -1.00  1.00 -1.00  1.00 -1.00  1.00 -1.00  1.00 -1.00
B_2g   1.00 -1.00  1.00 -1.00 -1.00  1.00  1.00 -1.00  1.00 -1.00 -1.00  1.00
E_1g   2.00  1.00 -1.00 -2.00  0.00  0.00  2.00  1.00 -1.00 -2.00  0.00  0.00
E_2g   2.00 -1.00 -1.00  2.00  0.00  0.00  2.00 -1.00 -1.00  2.00  0.00  0.00
A_1u   1.00  1.00  1.00  1.00  1.00  1.00 -1.00 -1.00 -1.00 -1.00 -1.00 -1.00
A_2u   1.00  1.00  1.00  1.00 -1.00 -1.00 -1.00 -1.00 -1.00 -1.00  1.00  1.00
B_1u   1.00 -1.00  1.00 -1.00  1.00 -1.00 -1.00  1.00 -1.00  1.00 -1.00  1.00
B_2u   1.00 -1.00  1.00 -1.00 -1.00  1.00 -1.00  1.00 -1.00  1.00  1.00 -1.00
E_1u   2.00  1.00 -1.00 -2.00  0.00  0.00 -2.00 -1.00  1.00  2.00  0.00  0.00
E_2u   2.00 -1.00 -1.00  2.00  0.00  0.00 -2.00  1.00  1.00 -2.00  0.00  0.00

     the symmetry operations in each class and the name of the first element:

     E        1
          identity                                               
     2C6      5    6
           60 deg rotation - cryst. axis [0,0,1]                 
     2C3      7    8
          120 deg rotation - cryst. axis [0,0,1]                 
     C2       2
          180 deg rotation - cart. axis [0,0,1]                  
     3C2'     4   12   11
          180 deg rotation - cart. axis [1,0,0]                  
     3C2''    3    9   10
          180 deg rotation - cart. axis [0,1,0]                  
     i       13
          inversion                                              
     2S3     17   18
          inv.  60 deg rotation - cryst. axis [0,0,1]            
     2S6     19   20
          inv. 120 deg rotation - cryst. axis [0,0,1]            
     s_h     14
          inv. 180 deg rotation - cart. axis [0,0,1]             
     3s_d    16   24   23
          inv. 180 deg rotation - cart. axis [1,0,0]             
     3s_v    15   21   22
          inv. 180 deg rotation - cart. axis [0,1,0]             

   Cartesian axes

     site n.     atom                  positions (alat units)
         1           C   tau(   1) = (   0.0000000   0.0000000   2.0325203  )
         2           C   tau(   2) = (  -0.0000000   0.5773503   2.0325203  )

   Crystallographic axes

     site n.     atom                  positions (cryst. coord.)
         1           C   tau(   1) = (  0.0000000  0.0000000  0.2500000  )
         2           C   tau(   2) = (  0.3333333  0.6666667  0.2500000  )

     number of k points=    19  Marzari-Vanderbilt smearing, width (Ry)=  0.0001
                       cart. coord. in units 2pi/alat
        k(    1) = (   0.0000000   0.0000000   0.0000000), wk =   0.0138889
        k(    2) = (   0.0000000   0.0962250   0.0000000), wk =   0.0833333
        k(    3) = (   0.0000000   0.1924501   0.0000000), wk =   0.0833333
        k(    4) = (   0.0000000   0.2886751   0.0000000), wk =   0.0833333
        k(    5) = (   0.0000000   0.3849002   0.0000000), wk =   0.0833333
        k(    6) = (   0.0000000   0.4811252   0.0000000), wk =   0.0833333
        k(    7) = (   0.0000000  -0.5773503   0.0000000), wk =   0.0416667
        k(    8) = (   0.0833333   0.1443376   0.0000000), wk =   0.0833333
        k(    9) = (   0.0833333   0.2405626   0.0000000), wk =   0.1666667
        k(   10) = (   0.0833333   0.3367877   0.0000000), wk =   0.1666667
        k(   11) = (   0.0833333   0.4330127   0.0000000), wk =   0.1666667
        k(   12) = (   0.0833333   0.5292377   0.0000000), wk =   0.1666667
        k(   13) = (   0.1666667   0.2886751   0.0000000), wk =   0.0833333
        k(   14) = (   0.1666667   0.3849002   0.0000000), wk =   0.1666667
        k(   15) = (   0.1666667   0.4811252   0.0000000), wk =   0.1666667
        k(   16) = (   0.1666667   0.5773503   0.0000000), wk =   0.0833333
        k(   17) = (   0.2500000   0.4330127   0.0000000), wk =   0.0833333
        k(   18) = (   0.2500000   0.5292377   0.0000000), wk =   0.1666667
        k(   19) = (   0.3333333   0.5773503   0.0000000), wk =   0.0277778

                       cryst. coord.
        k(    1) = (   0.0000000   0.0000000   0.0000000), wk =   0.0138889
        k(    2) = (   0.0000000   0.0833333   0.0000000), wk =   0.0833333
        k(    3) = (   0.0000000   0.1666667   0.0000000), wk =   0.0833333
        k(    4) = (   0.0000000   0.2500000   0.0000000), wk =   0.0833333
        k(    5) = (   0.0000000   0.3333333   0.0000000), wk =   0.0833333
        k(    6) = (   0.0000000   0.4166667   0.0000000), wk =   0.0833333
        k(    7) = (   0.0000000  -0.5000000   0.0000000), wk =   0.0416667
        k(    8) = (   0.0833333   0.0833333   0.0000000), wk =   0.0833333
        k(    9) = (   0.0833333   0.1666667   0.0000000), wk =   0.1666667
        k(   10) = (   0.0833333   0.2500000   0.0000000), wk =   0.1666667
        k(   11) = (   0.0833333   0.3333333   0.0000000), wk =   0.1666667
        k(   12) = (   0.0833333   0.4166667   0.0000000), wk =   0.1666667
        k(   13) = (   0.1666667   0.1666667   0.0000000), wk =   0.0833333
        k(   14) = (   0.1666667   0.2500000   0.0000000), wk =   0.1666667
        k(   15) = (   0.1666667   0.3333333   0.0000000), wk =   0.1666667
        k(   16) = (   0.1666667   0.4166667   0.0000000), wk =   0.0833333
        k(   17) = (   0.2500000   0.2500000   0.0000000), wk =   0.0833333
        k(   18) = (   0.2500000   0.3333333   0.0000000), wk =   0.1666667
        k(   19) = (   0.3333333   0.3333333   0.0000000), wk =   0.0277778

     Dense  grid:    95599 G-vectors     FFT dimensions: (  30,  30, 250)

     Smooth grid:    24261 G-vectors     FFT dimensions: (  24,  24, 160)

     Dynamical RAM for                 wfc:       0.18 MB

     Dynamical RAM for     wfc (w. buffer):       3.69 MB

     Dynamical RAM for           str. fact:       0.73 MB

     Dynamical RAM for           local pot:       0.00 MB

     Dynamical RAM for          nlocal pot:       0.37 MB

     Dynamical RAM for                qrad:       0.69 MB

     Dynamical RAM for          rho,v,vnew:       4.76 MB

     Dynamical RAM for               rhoin:       1.59 MB

     Dynamical RAM for            rho*nmix:      11.67 MB

     Dynamical RAM for           G-vectors:       2.83 MB

     Dynamical RAM for          h,s,v(r/c):       0.01 MB

     Dynamical RAM for          <psi|beta>:       0.00 MB

     Dynamical RAM for                 psi:       0.37 MB

     Dynamical RAM for                hpsi:       0.37 MB

     Dynamical RAM for                spsi:       0.37 MB

     Dynamical RAM for      wfcinit/wfcrot:       0.37 MB

     Dynamical RAM for           addusdens:      32.82 MB

     Dynamical RAM for          addusforce:      34.65 MB

     Dynamical RAM for         addusstress:      36.47 MB

     Estimated static dynamical RAM per process >      20.40 MB

     Estimated max dynamical RAM per process >      68.54 MB

     Estimated total dynamical RAM >     137.08 MB

     Check: negative core charge=   -0.000002

     Initial potential from superposition of free atoms

     starting charge       7.9999, renormalised to       8.0000

     negative rho (up, down):  1.059E-04 0.000E+00
     Starting wfcs are    8 randomized atomic wfcs
     Checking if some PAW data can be deallocated... 

     total cpu time spent up to now is        8.6 secs

     per-process dynamical memory:    34.9 Mb

     Self-consistent Calculation

     iteration #  1     ecut=    40.00 Ry     beta= 0.30
     Davidson diagonalization with overlap

---- Real-time Memory Report at c_bands before calling an iterative solver
            84 MiB given to the printing process from OS
            34 MiB allocation reported by mallinfo(arena+hblkhd)
          2166 MiB available memory on the node where the printing process lives
------------------
     ethr =  1.00E-02,  avg # of iterations =  5.9

     negative rho (up, down):  1.057E-04 0.000E+00

     total cpu time spent up to now is       20.7 secs

          k = 0.0000 0.0000 0.0000     band energies (ev):

   -26.2409 -13.2940 -10.4923 -10.4922   0.4046   1.4714   1.4736   1.5812

     occupation numbers 
     1.0000   1.0000   1.0000   1.0000   0.0000   0.0000   0.0000   0.0000

          k = 0.0000 0.0962 0.0000     band energies (ev):

   -26.0813 -13.1029 -11.0895 -10.8064   1.5845   1.7560   2.1379   4.3685

     occupation numbers 
     1.0000   1.0000   1.0000   1.0000   0.0000   0.0000   0.0000   0.0000

          k = 0.0000 0.1925 0.0000     band energies (ev):

   -25.6058 -12.6136 -12.5331 -11.5529   1.2406   1.7051   2.9934   3.9066

     occupation numbers 
     1.0000   1.0000   1.0000   1.0000   0.0000   0.0000   0.0000   0.0000

          k = 0.0000 0.2887 0.0000     band energies (ev):

   -24.8195 -14.5936 -12.3932 -11.6125   1.0613   1.4567   2.4327   6.3719

     occupation numbers 
     1.0000   1.0000   1.0000   1.0000   0.0000   0.0000   0.0000   0.0000

          k = 0.0000 0.3849 0.0000     band energies (ev):

   -23.7358 -16.6931 -13.1006 -10.3927  -1.0991   1.2366   3.9128   5.8855

     occupation numbers 
     1.0000   1.0000   1.0000   1.0000   0.0000   0.0000   0.0000   0.0000

          k = 0.0000 0.4811 0.0000     band energies (ev):

   -22.3870 -18.7058 -13.5589  -9.0440  -3.0967   1.0594   5.8255   7.6123

     occupation numbers 
     1.0000   1.0000   1.0000   1.0000   0.0000   0.0000   0.0000   0.0000

          k = 0.0000-0.5774 0.0000     band energies (ev):

   -21.1800 -20.1422 -13.7166  -8.2668  -4.1051   0.9932   7.9348   8.1218

     occupation numbers 
     1.0000   1.0000   1.0000   1.0000   0.0000   0.0000   0.0000   0.0000

          k = 0.0833 0.1443 0.0000     band energies (ev):

   -25.7640 -12.7233 -12.0552 -11.4327   1.0232   1.9483   2.1855   3.0313

     occupation numbers 
     1.0000   1.0000   1.0000   1.0000   0.0000   0.0000   0.0000   0.0000

          k = 0.0833 0.2406 0.0000     band energies (ev):

   -25.1331 -13.6635 -12.3705 -11.9756   1.8257   1.8603   2.2717   4.5631

     occupation numbers 
     1.0000   1.0000   1.0000   1.0000   0.0000   0.0000   0.0000   0.0000

          k = 0.0833 0.3368 0.0000     band energies (ev):

   -24.1980 -15.6275 -13.2197 -10.8986  -0.1745   2.0017   3.2813   6.7166

     occupation numbers 
     1.0000   1.0000   1.0000   1.0000   0.0000   0.0000   0.0000   0.0000

          k = 0.0833 0.4330 0.0000     band energies (ev):

   -22.9785 -17.6540 -13.8338  -9.5791  -2.2428   1.8070   4.9842   8.8420

     occupation numbers 
     1.0000   1.0000   1.0000   1.0000   0.0000   0.0000   0.0000   0.0000

          k = 0.0833 0.5292 0.0000     band energies (ev):

   -21.5540 -19.5133 -14.1526  -8.3532  -3.8842   1.6785   7.0293   9.0756

     occupation numbers 
     1.0000   1.0000   1.0000   1.0000   0.0000   0.0000   0.0000   0.0000

          k = 0.1667 0.2887 0.0000     band energies (ev):

   -24.3532 -14.9399 -13.6334 -11.0699   0.1992   2.9610   3.4724   4.8001

     occupation numbers 
     1.0000   1.0000   1.0000   1.0000   0.0000   0.0000   0.0000   0.0000

          k = 0.1667 0.3849 0.0000     band energies (ev):

   -23.2810 -16.5824 -14.6390  -9.8656  -1.6446   3.6094   4.5781   6.3314

     occupation numbers 
     1.0000   1.0000   1.0000   1.0000   0.0000   0.0000   0.0000   0.0000

          k = 0.1667 0.4811 0.0000     band energies (ev):

   -21.9533 -18.4023 -15.1981  -8.5090  -3.4418   3.4862   6.3960   8.2990

     occupation numbers 
     1.0000   1.0000   1.0000   1.0000   0.0000   0.0000   0.0000   0.0000

          k = 0.1667 0.5774 0.0000     band energies (ev):

   -20.7761 -19.7654 -15.3783  -7.6806  -4.4283   3.4202   8.0306   8.5908

     occupation numbers 
     1.0000   1.0000   1.0000   1.0000   0.0000   0.0000   0.0000   0.0000

          k = 0.2500 0.4330 0.0000     band energies (ev):

   -22.0957 -17.5875 -16.0257  -8.5801  -3.2167   5.6041   6.0275   6.3905

     occupation numbers 
     1.0000   1.0000   1.0000   1.0000   0.0000   0.0000   0.0000   0.0000

          k = 0.2500 0.5292 0.0000     band energies (ev):

   -20.7306 -18.9381 -16.7045  -7.2650  -4.6719   5.6977   7.4973   8.3945

     occupation numbers 
     1.0000   1.0000   1.0000   1.0000   0.0000   0.0000   0.0000   0.0000

          k = 0.3333 0.5774 0.0000     band energies (ev):

   -19.5694 -19.5694 -17.5320  -5.9550  -5.9549   7.3277   7.3284   9.1223

     occupation numbers 
     1.0000   1.0000   1.0000   0.5267   0.4733   0.0000   0.0000   0.0000

     the Fermi energy is    -5.9548 ev

!    total energy              =     -36.90987903 Ry
     total all-electron energy =      -152.438075 Ry
     estimated scf accuracy    <       0.20014431 Ry
     smearing contrib. (-TS)   =      -0.00000091 Ry
     internal energy E=F+TS    =     -36.90987812 Ry

     The total energy is F=E-TS. E is the sum of the following terms:
     one-electron contribution =    -225.97034329 Ry
     hartree contribution      =     112.44565956 Ry
     xc contribution           =      -9.09383990 Ry
     ewald contribution        =      95.72438432 Ry
     scf correction            =       2.37064187 Ry
     one-center paw contrib.   =     -12.38638069 Ry
      -> PAW hartree energy AE =       6.16085455 Ry
      -> PAW hartree energy PS =      -6.15075305 Ry
      -> PAW xc energy AE      =      -9.85955791 Ry
      -> PAW xc energy PS      =       3.65626606 Ry
      -> total E_H with PAW    =     112.45576107 Ry
      -> total E_XC with PAW   =     -15.29713174 Ry

     iteration #  2     ecut=    40.00 Ry     beta= 0.30
     Davidson diagonalization with overlap

---- Real-time Memory Report at c_bands before calling an iterative solver
            92 MiB given to the printing process from OS
            66 MiB allocation reported by mallinfo(arena+hblkhd)
          2128 MiB available memory on the node where the printing process lives
------------------
     ethr =  2.50E-03,  avg # of iterations =  1.6

     negative rho (up, down):  2.809E-04 0.000E+00

     total cpu time spent up to now is       27.5 secs

          k = 0.0000 0.0000 0.0000     band energies (ev):

   -24.2901 -11.7859  -8.1954  -8.1954   0.6253   1.5841   3.5504   3.5508

     occupation numbers 
     1.0000   1.0000   1.0000   1.0000   0.0000   0.0000   0.0000   0.0000

          k = 0.0000 0.0962 0.0000     band energies (ev):

   -24.1284 -11.5920  -8.8159  -8.5206   0.8787   1.7430   3.0323   3.6560

     occupation numbers 
     1.0000   1.0000   1.0000   1.0000   0.0000   0.0000   0.0000   0.0000

          k = 0.0000 0.1925 0.0000     band energies (ev):

   -23.6453 -11.0158 -10.3912  -9.2889   1.5135   3.6455   4.8544   6.0371

     occupation numbers 
     1.0000   1.0000   1.0000   1.0000   0.0000   0.0000   0.0000   0.0000

          k = 0.0000 0.2887 0.0000     band energies (ev):

   -22.8467 -12.4266 -10.1488 -10.0783   2.5972   2.8397   3.4601   8.5340

     occupation numbers 
     1.0000   1.0000   1.0000   1.0000   0.0000   0.0000   0.0000   0.0000

          k = 0.0000 0.3849 0.0000     band energies (ev):

   -21.7451 -14.5762 -10.8697  -8.8320   0.6029   3.1241   4.1724   5.6904

     occupation numbers 
     1.0000   1.0000   1.0000   1.0000   0.0000   0.0000   0.0000   0.0000

          k = 0.0000 0.4811 0.0000     band energies (ev):

   -20.3719 -16.6329 -11.3358  -7.4450  -1.4645   2.9309   6.1184   7.4665

     occupation numbers 
     1.0000   1.0000   1.0000   1.0000   0.0000   0.0000   0.0000   0.0000

          k = 0.0000-0.5774 0.0000     band energies (ev):

   -19.1328 -18.1079 -11.4962  -6.6351  -2.5154   2.8568   8.4045   8.5215

     occupation numbers 
     1.0000   1.0000   1.0000   1.0000   0.0000   0.0000   0.0000   0.0000

          k = 0.0833 0.1443 0.0000     band energies (ev):

   -23.8061 -11.2071  -9.8120  -9.1706   1.2700   2.1979   3.9536   5.1244

     occupation numbers 
     1.0000   1.0000   1.0000   1.0000   0.0000   0.0000   0.0000   0.0000

          k = 0.0833 0.2406 0.0000     band energies (ev):

   -23.1652 -11.4670 -10.4486 -10.1371   2.1886   3.6448   4.1521   6.6317

     occupation numbers 
     1.0000   1.0000   1.0000   1.0000   0.0000   0.0000   0.0000   0.0000

          k = 0.0833 0.3368 0.0000     band energies (ev):

   -22.2150 -13.4828 -11.0049  -9.3500   1.5721   3.4525   4.0158   8.7380

     occupation numbers 
     1.0000   1.0000   1.0000   1.0000   0.0000   0.0000   0.0000   0.0000

          k = 0.0833 0.4330 0.0000     band energies (ev):

   -20.9746 -15.5566 -11.6298  -7.9983  -0.5667   3.7086   5.2551   6.3920

     occupation numbers 
     1.0000   1.0000   1.0000   1.0000   0.0000   0.0000   0.0000   0.0000

          k = 0.0833 0.5292 0.0000     band energies (ev):

   -19.5208 -17.4581 -11.9538  -6.7308  -2.2693   3.5699   7.4061   9.8139

     occupation numbers 
     1.0000   1.0000   1.0000   1.0000   0.0000   0.0000   0.0000   0.0000

          k = 0.1667 0.2887 0.0000     band energies (ev):

   -22.3727 -12.7684 -11.4473  -9.5253   1.9767   3.3057   5.3407   6.8465

     occupation numbers 
     1.0000   1.0000   1.0000   1.0000   0.0000   0.0000   0.0000   0.0000

          k = 0.1667 0.3849 0.0000     band energies (ev):

   -21.2824 -14.4516 -12.4779  -8.2945   0.0826   4.7890   5.6349   8.3305

     occupation numbers 
     1.0000   1.0000   1.0000   1.0000   0.0000   0.0000   0.0000   0.0000

          k = 0.1667 0.4811 0.0000     band energies (ev):

   -19.9299 -16.3167 -13.0456  -6.9015  -1.7705   5.4163   6.7659   9.9878

     occupation numbers 
     1.0000   1.0000   1.0000   1.0000   0.0000   0.0000   0.0000   0.0000

          k = 0.1667 0.5774 0.0000     band energies (ev):

   -18.7209 -17.7186 -13.2282  -6.0419  -2.7958   5.3464   8.8071   9.1023

     occupation numbers 
     1.0000   1.0000   1.0000   1.0000   0.0000   0.0000   0.0000   0.0000

          k = 0.2500 0.4330 0.0000     band energies (ev):

   -20.0751 -15.4701 -13.9128  -6.9787  -1.5129   6.5399   7.6990   8.0404

     occupation numbers 
     1.0000   1.0000   1.0000   1.0000   0.0000   0.0000   0.0000   0.0000

          k = 0.2500 0.5292 0.0000     band energies (ev):

   -18.6804 -16.8562 -14.6062  -5.6280  -3.0009   7.6267   8.5122   9.5867

     occupation numbers 
     1.0000   1.0000   1.0000   1.0000   0.0000   0.0000   0.0000   0.0000

          k = 0.3333 0.5774 0.0000     band energies (ev):

   -17.4906 -17.4906 -15.4707  -4.2941  -4.2941   9.0537   9.0548  10.1750

     occupation numbers 
     1.0000   1.0000   1.0000   0.5032   0.4968   0.0000   0.0000   0.0000

     the Fermi energy is    -4.2939 ev

!    total energy              =     -36.87323253 Ry
     total all-electron energy =      -152.401428 Ry
     estimated scf accuracy    <       0.06980402 Ry
     smearing contrib. (-TS)   =      -0.00000091 Ry
     internal energy E=F+TS    =     -36.87323162 Ry

     The total energy is F=E-TS. E is the sum of the following terms:
     one-electron contribution =    -225.56880106 Ry
     hartree contribution      =     114.07580151 Ry
     xc contribution           =      -9.30851854 Ry
     ewald contribution        =      95.72438432 Ry
     scf correction            =       0.55840628 Ry
     one-center paw contrib.   =     -12.35450413 Ry
      -> PAW hartree energy AE =       8.79167881 Ry
      -> PAW hartree energy PS =      -8.78226437 Ry
      -> PAW xc energy AE      =     -10.51727434 Ry
      -> PAW xc energy PS      =       4.33060782 Ry
      -> total E_H with PAW    =     114.08521596 Ry
      -> total E_XC with PAW   =     -15.49518505 Ry

     iteration #  3     ecut=    40.00 Ry     beta= 0.30
     Davidson diagonalization with overlap

---- Real-time Memory Report at c_bands before calling an iterative solver
            92 MiB given to the printing process from OS
            66 MiB allocation reported by mallinfo(arena+hblkhd)
          2122 MiB available memory on the node where the printing process lives
------------------
     ethr =  8.73E-04,  avg # of iterations =  5.9

     negative rho (up, down):  2.226E-04 0.000E+00

     total cpu time spent up to now is       39.0 secs

          k = 0.0000 0.0000 0.0000     band energies (ev):

   -21.5761  -9.7294  -4.9857  -4.9857   0.8861   1.5756   6.4289   6.4289

     occupation numbers 
     1.0000   1.0000   1.0000   1.0000   0.0000   0.0000   0.0000   0.0000

          k = 0.0000 0.0962 0.0000     band energies (ev):

   -21.4111  -9.5317  -5.6415  -5.3278   1.1029   1.7024   2.8561   6.4746

     occupation numbers 
     1.0000   1.0000   1.0000   1.0000   0.0000   0.0000   0.0000   0.0000

          k = 0.0000 0.1925 0.0000     band energies (ev):

   -20.9178  -8.9438  -7.2937  -6.1292   1.7370   2.3748   2.5049   3.5586

     occupation numbers 
     1.0000   1.0000   1.0000   1.0000   0.0000   0.0000   0.0000   0.0000

          k = 0.0000 0.2887 0.0000     band energies (ev):

   -20.1020  -9.4092  -7.9847  -7.0176   2.8608   3.5489   3.6741   5.1747

     occupation numbers 
     1.0000   1.0000   1.0000   1.0000   0.0000   0.0000   0.0000   0.0000

          k = 0.0000 0.3849 0.0000     band energies (ev):

   -18.9755 -11.6299  -7.7577  -6.7042   2.9196   4.4300   5.3682   5.8010

     occupation numbers 
     1.0000   1.0000   1.0000   1.0000   0.0000   0.0000   0.0000   0.0000

          k = 0.0000 0.4811 0.0000     band energies (ev):

   -17.5690 -13.7475  -8.2348  -5.2650   0.7538   5.5331   6.4613   7.2955

     occupation numbers 
     1.0000   1.0000   1.0000   1.0000   0.0000   0.0000   0.0000   0.0000

          k = 0.0000-0.5774 0.0000     band energies (ev):

   -16.2870 -15.2744  -8.3987  -4.4070  -0.3612   5.4545   8.8597   8.9557

     occupation numbers 
     1.0000   1.0000   1.0000   1.0000   0.0000   0.0000   0.0000   0.0000

          k = 0.0833 0.1443 0.0000     band energies (ev):

   -21.0820  -9.1388  -6.6830  -6.0140   1.5130   2.1488   2.2975   3.3311

     occupation numbers 
     1.0000   1.0000   1.0000   1.0000   0.0000   0.0000   0.0000   0.0000

          k = 0.0833 0.2406 0.0000     band energies (ev):

   -20.4274  -8.4070  -8.3640  -7.0229   2.4124   3.0539   3.1938   4.2075

     occupation numbers 
     1.0000   1.0000   1.0000   1.0000   0.0000   0.0000   0.0000   0.0000

          k = 0.0833 0.3368 0.0000     band energies (ev):

   -19.4562 -10.4971  -7.9173  -7.2379   3.7646   3.9326   4.4458   4.6294

     occupation numbers 
     1.0000   1.0000   1.0000   1.0000   0.0000   0.0000   0.0000   0.0000

          k = 0.0833 0.4330 0.0000     band energies (ev):

   -18.1867 -12.6373  -8.5574  -5.8439   1.7176   5.5641   6.3015   6.3892

     occupation numbers 
     1.0000   1.0000   1.0000   1.0000   0.0000   0.0000   0.0000   0.0000

          k = 0.0833 0.5292 0.0000     band energies (ev):

   -16.6934 -14.5970  -8.8885  -4.5171  -0.0760   6.1992   7.7978   8.4956

     occupation numbers 
     1.0000   1.0000   1.0000   1.0000   0.0000   0.0000   0.0000   0.0000

          k = 0.1667 0.2887 0.0000     band energies (ev):

   -19.6173  -9.7441  -8.4022  -7.4184   3.5370   4.1975   4.3656   4.4127

     occupation numbers 
     1.0000   1.0000   1.0000   1.0000   0.0000   0.0000   0.0000   0.0000

          k = 0.1667 0.3849 0.0000     band energies (ev):

   -18.5018 -11.4857  -9.4679  -6.1532   2.4442   5.1262   5.8144   8.2391

     occupation numbers 
     1.0000   1.0000   1.0000   1.0000   0.0000   0.0000   0.0000   0.0000

          k = 0.1667 0.4811 0.0000     band energies (ev):

   -17.1152 -13.4139 -10.0471  -4.7103   0.5086   7.1129   7.7635   8.1192

     occupation numbers 
     1.0000   1.0000   1.0000   1.0000   0.0000   0.0000   0.0000   0.0000

          k = 0.1667 0.5774 0.0000     band energies (ev):

   -15.8635 -14.8689 -10.2329  -3.8043  -0.5749   8.0208   9.4077   9.5619

     occupation numbers 
     1.0000   1.0000   1.0000   1.0000   0.0000   0.0000   0.0000   0.0000

          k = 0.2500 0.4330 0.0000     band energies (ev):

   -17.2644 -12.5233 -10.9705  -4.7966   0.8170   6.9342  10.2249  10.7449

     occupation numbers 
     1.0000   1.0000   1.0000   1.0000   0.0000   0.0000   0.0000   0.0000

          k = 0.2500 0.5292 0.0000     band energies (ev):

   -15.8289 -13.9595 -11.6832  -3.3946  -0.7192   8.6757   9.0416  10.2739

     occupation numbers 
     1.0000   1.0000   1.0000   1.0000   0.0000   0.0000   0.0000   0.0000

          k = 0.3333 0.5774 0.0000     band energies (ev):

   -14.5991 -14.5991 -12.5981  -2.0258  -2.0258   8.4262  10.7826  10.7964

     occupation numbers 
     1.0000   1.0000   1.0000   0.5001   0.4999   0.0000   0.0000   0.0000

     the Fermi energy is    -2.0256 ev

!    total energy              =     -36.88625656 Ry
     total all-electron energy =      -152.414452 Ry
     estimated scf accuracy    <       0.00169032 Ry
     smearing contrib. (-TS)   =      -0.00000091 Ry
     internal energy E=F+TS    =     -36.88625565 Ry

     The total energy is F=E-TS. E is the sum of the following terms:
     one-electron contribution =    -224.77514505 Ry
     hartree contribution      =     113.47977400 Ry
     xc contribution           =      -9.23219735 Ry
     ewald contribution        =      95.72438432 Ry
     scf correction            =       0.25441929 Ry
     one-center paw contrib.   =     -12.33749086 Ry
      -> PAW hartree energy AE =       9.07597542 Ry
      -> PAW hartree energy PS =      -9.06732388 Ry
      -> PAW xc energy AE      =     -10.57630409 Ry
      -> PAW xc energy PS      =       4.39890712 Ry
      -> total E_H with PAW    =     113.48842554 Ry
      -> total E_XC with PAW   =     -15.40959432 Ry

     iteration #  4     ecut=    40.00 Ry     beta= 0.30
     Davidson diagonalization with overlap

---- Real-time Memory Report at c_bands before calling an iterative solver
            93 MiB given to the printing process from OS
            66 MiB allocation reported by mallinfo(arena+hblkhd)
          2100 MiB available memory on the node where the printing process lives
------------------
     ethr =  2.11E-05,  avg # of iterations =  7.7

     negative rho (up, down):  2.217E-04 0.000E+00

     total cpu time spent up to now is       53.6 secs

          k = 0.0000 0.0000 0.0000     band energies (ev):

   -22.5610 -10.4896  -6.1341  -6.1341   0.7844   1.5120   1.6822   2.6625

     occupation numbers 
     1.0000   1.0000   1.0000   1.0000   0.0000   0.0000   0.0000   0.0000

          k = 0.0000 0.0962 0.0000     band energies (ev):

   -22.3971 -10.2933  -6.7788  -6.4713   1.0080   1.7393   1.9119   2.8893

     occupation numbers 
     1.0000   1.0000   1.0000   1.0000   0.0000   0.0000   0.0000   0.0000

          k = 0.0000 0.1925 0.0000     band energies (ev):

   -21.9072  -9.7098  -8.4059  -7.2629   1.6791   2.4205   2.5987   3.5686

     occupation numbers 
     1.0000   1.0000   1.0000   1.0000   0.0000   0.0000   0.0000   0.0000

          k = 0.0000 0.2887 0.0000     band energies (ev):

   -21.0971 -10.4951  -8.7587  -8.1431   2.7951   3.5376   3.7445   4.3704

     occupation numbers 
     1.0000   1.0000   1.0000   1.0000   0.0000   0.0000   0.0000   0.0000

          k = 0.0000 0.3849 0.0000     band energies (ev):

   -19.9789 -12.6922  -8.8777  -7.4908   2.0655   4.3262   4.8550   5.1506

     occupation numbers 
     1.0000   1.0000   1.0000   1.0000   0.0000   0.0000   0.0000   0.0000

          k = 0.0000 0.4811 0.0000     band energies (ev):

   -18.5835 -14.7895  -9.3514  -6.0714  -0.0630   4.5870   6.3593   7.1667

     occupation numbers 
     1.0000   1.0000   1.0000   1.0000   0.0000   0.0000   0.0000   0.0000

          k = 0.0000-0.5774 0.0000     band energies (ev):

   -17.3160 -16.2989  -9.5143  -5.2322  -1.1540   4.5093   8.6630   8.8122

     occupation numbers 
     1.0000   1.0000   1.0000   1.0000   0.0000   0.0000   0.0000   0.0000

          k = 0.0833 0.1443 0.0000     band energies (ev):

   -22.0702  -9.9033  -7.8059  -7.1463   1.4557   2.1936   2.3695   3.3428

     occupation numbers 
     1.0000   1.0000   1.0000   1.0000   0.0000   0.0000   0.0000   0.0000

          k = 0.0833 0.2406 0.0000     band energies (ev):

   -21.4202  -9.5069  -9.1347  -8.1421   2.3506   3.0994   3.2868   4.2477

     occupation numbers 
     1.0000   1.0000   1.0000   1.0000   0.0000   0.0000   0.0000   0.0000

          k = 0.0833 0.3368 0.0000     band energies (ev):

   -20.4559 -11.5725  -9.0284  -8.0187   3.0735   3.6869   4.4679   4.6609

     occupation numbers 
     1.0000   1.0000   1.0000   1.0000   0.0000   0.0000   0.0000   0.0000

          k = 0.0833 0.4330 0.0000     band energies (ev):

   -19.1962 -13.6906  -9.6639  -6.6405   0.8762   5.3111   5.5640   6.2586

     occupation numbers 
     1.0000   1.0000   1.0000   1.0000   0.0000   0.0000   0.0000   0.0000

          k = 0.0833 0.5292 0.0000     band energies (ev):

   -17.7162 -15.6309  -9.9928  -5.3365  -0.8841   5.2434   7.6576   8.4463

     occupation numbers 
     1.0000   1.0000   1.0000   1.0000   0.0000   0.0000   0.0000   0.0000

          k = 0.1667 0.2887 0.0000     band energies (ev):

   -20.6160 -10.8323  -9.4987  -8.1973   3.4679   3.5170   4.2259   4.4330

     occupation numbers 
     1.0000   1.0000   1.0000   1.0000   0.0000   0.0000   0.0000   0.0000

          k = 0.1667 0.3849 0.0000     band energies (ev):

   -19.5089 -12.5546 -10.5530  -6.9448   1.5736   5.0181   5.7828   6.0369

     occupation numbers 
     1.0000   1.0000   1.0000   1.0000   0.0000   0.0000   0.0000   0.0000

          k = 0.1667 0.4811 0.0000     band energies (ev):

   -18.1337 -14.4619 -11.1284  -5.5208  -0.3326   6.9363   7.1974   7.6940

     occupation numbers 
     1.0000   1.0000   1.0000   1.0000   0.0000   0.0000   0.0000   0.0000

          k = 0.1667 0.5774 0.0000     band energies (ev):

   -16.8963 -15.8989 -11.3132  -4.6327  -1.3948   7.0489   9.2062   9.4132

     occupation numbers 
     1.0000   1.0000   1.0000   1.0000   0.0000   0.0000   0.0000   0.0000

          k = 0.2500 0.4330 0.0000     band energies (ev):

   -18.2816 -13.5858 -12.0328  -5.6035  -0.0432   6.7678   7.4084   7.8683

     occupation numbers 
     1.0000   1.0000   1.0000   1.0000   0.0000   0.0000   0.0000   0.0000

          k = 0.2500 0.5292 0.0000     band energies (ev):

   -16.8597 -15.0054 -12.7389  -4.2208  -1.5622   8.2992   8.8332   9.3583

     occupation numbers 
     1.0000   1.0000   1.0000   1.0000   0.0000   0.0000   0.0000   0.0000

          k = 0.3333 0.5774 0.0000     band energies (ev):

   -15.6432 -15.6432 -13.6366  -2.8645  -2.8645   8.0105  10.2370  10.2370

     occupation numbers 
     1.0000   1.0000   1.0000   0.5000   0.5000   0.0000   0.0000   0.0000

     the Fermi energy is    -2.8643 ev

!    total energy              =     -36.88518668 Ry
     total all-electron energy =      -152.413382 Ry
     estimated scf accuracy    <       0.00394592 Ry
     smearing contrib. (-TS)   =      -0.00000091 Ry
     internal energy E=F+TS    =     -36.88518576 Ry

     The total energy is F=E-TS. E is the sum of the following terms:
     one-electron contribution =    -225.05240354 Ry
     hartree contribution      =     113.86793955 Ry
     xc contribution           =      -9.28409594 Ry
     ewald contribution        =      95.72438432 Ry
     scf correction            =       0.19356468 Ry
     one-center paw contrib.   =     -12.33457484 Ry
      -> PAW hartree energy AE =       9.54557489 Ry
      -> PAW hartree energy PS =      -9.53689437 Ry
      -> PAW xc energy AE      =     -10.68754285 Ry
      -> PAW xc energy PS      =       4.51157491 Ry
      -> total E_H with PAW    =     113.87662007 Ry
      -> total E_XC with PAW   =     -15.46006387 Ry

     iteration #  5     ecut=    40.00 Ry     beta= 0.30
     Davidson diagonalization with overlap

---- Real-time Memory Report at c_bands before calling an iterative solver
            93 MiB given to the printing process from OS
            67 MiB allocation reported by mallinfo(arena+hblkhd)
          2098 MiB available memory on the node where the printing process lives
------------------
     ethr =  2.11E-05,  avg # of iterations =  3.1

     negative rho (up, down):  1.795E-04 0.000E+00

     total cpu time spent up to now is       63.0 secs

          k = 0.0000 0.0000 0.0000     band energies (ev):

   -21.9206 -10.0040  -5.3821  -5.3821   0.8432   1.5062   1.6335   2.6465

     occupation numbers 
     1.0000   1.0000   1.0000   1.0000   0.0000   0.0000   0.0000   0.0000

          k = 0.0000 0.0962 0.0000     band energies (ev):

   -21.7560  -9.8068  -6.0349  -5.7231   1.0677   1.7339   1.8629   2.8738

     occupation numbers 
     1.0000   1.0000   1.0000   1.0000   0.0000   0.0000   0.0000   0.0000

          k = 0.0000 0.1925 0.0000     band energies (ev):

   -21.2638  -9.2206  -7.6794  -6.5221   1.7412   2.4163   2.5496   3.5530

     occupation numbers 
     1.0000   1.0000   1.0000   1.0000   0.0000   0.0000   0.0000   0.0000

          k = 0.0000 0.2887 0.0000     band energies (ev):

   -20.4499  -9.7867  -8.2646  -7.4085   2.8616   3.5429   3.6954   4.6404

     occupation numbers 
     1.0000   1.0000   1.0000   1.0000   0.0000   0.0000   0.0000   0.0000

          k = 0.0000 0.3849 0.0000     band energies (ev):

   -19.3263 -11.9997  -8.1474  -6.9889   2.6085   4.4186   5.1562   5.4468

     occupation numbers 
     1.0000   1.0000   1.0000   1.0000   0.0000   0.0000   0.0000   0.0000

          k = 0.0000 0.4811 0.0000     band energies (ev):

   -17.9236 -14.1105  -8.6235  -5.5574   0.4586   5.2034   6.4417   7.1793

     occupation numbers 
     1.0000   1.0000   1.0000   1.0000   0.0000   0.0000   0.0000   0.0000

          k = 0.0000-0.5774 0.0000     band energies (ev):

   -16.6472 -15.6308  -8.7871  -4.7070  -0.6475   5.1255   8.7680   8.9083

     occupation numbers 
     1.0000   1.0000   1.0000   1.0000   0.0000   0.0000   0.0000   0.0000

          k = 0.0833 0.1443 0.0000     band energies (ev):

   -21.4276  -9.4151  -7.0724  -6.4062   1.5169   2.1889   2.3206   3.3272

     occupation numbers 
     1.0000   1.0000   1.0000   1.0000   0.0000   0.0000   0.0000   0.0000

          k = 0.0833 0.2406 0.0000     band energies (ev):

   -20.7745  -8.7890  -8.6427  -7.4114   2.4144   3.0966   3.2371   4.2319

     occupation numbers 
     1.0000   1.0000   1.0000   1.0000   0.0000   0.0000   0.0000   0.0000

          k = 0.0833 0.3368 0.0000     band energies (ev):

   -19.8056 -10.8713  -8.3036  -7.5204   3.6265   3.7566   4.4775   4.6119

     occupation numbers 
     1.0000   1.0000   1.0000   1.0000   0.0000   0.0000   0.0000   0.0000

          k = 0.0833 0.4330 0.0000     band energies (ev):

   -18.5395 -13.0042  -8.9425  -6.1325   1.4132   5.5216   6.0551   6.2686

     occupation numbers 
     1.0000   1.0000   1.0000   1.0000   0.0000   0.0000   0.0000   0.0000

          k = 0.0833 0.5292 0.0000     band energies (ev):

   -17.0510 -14.9572  -9.2729  -4.8147  -0.3681   5.8662   7.7494   8.4811

     occupation numbers 
     1.0000   1.0000   1.0000   1.0000   0.0000   0.0000   0.0000   0.0000

          k = 0.1667 0.2887 0.0000     band energies (ev):

   -19.9665 -10.1226  -8.7833  -7.7001   3.5349   4.0902   4.2276   4.3834

     occupation numbers 
     1.0000   1.0000   1.0000   1.0000   0.0000   0.0000   0.0000   0.0000

          k = 0.1667 0.3849 0.0000     band energies (ev):

   -18.8538 -11.8580  -9.8453  -6.4398   2.1292   5.0947   5.7952   5.9875

     occupation numbers 
     1.0000   1.0000   1.0000   1.0000   0.0000   0.0000   0.0000   0.0000

          k = 0.1667 0.4811 0.0000     band energies (ev):

   -17.4711 -13.7792 -10.4234  -5.0042   0.2037   7.0702   7.7436   7.7830

     occupation numbers 
     1.0000   1.0000   1.0000   1.0000   0.0000   0.0000   0.0000   0.0000

          k = 0.1667 0.5774 0.0000     band energies (ev):

   -16.2249 -15.2274 -10.6089  -4.1053  -0.8723   7.6811   9.3397   9.5221

     occupation numbers 
     1.0000   1.0000   1.0000   1.0000   0.0000   0.0000   0.0000   0.0000

          k = 0.2500 0.4330 0.0000     band energies (ev):

   -17.6198 -12.8938 -11.3399  -5.0891   0.5052   6.8570   7.4664   7.8178

     occupation numbers 
     1.0000   1.0000   1.0000   1.0000   0.0000   0.0000   0.0000   0.0000

          k = 0.2500 0.5292 0.0000     band energies (ev):

   -16.1891 -14.3244 -12.0503  -3.6944  -1.0250   8.5511   8.9738   9.9498

     occupation numbers 
     1.0000   1.0000   1.0000   1.0000   0.0000   0.0000   0.0000   0.0000

          k = 0.3333 0.5774 0.0000     band energies (ev):

   -14.9640 -14.9640 -12.9584  -2.3301  -2.3301   8.2935  10.5967  10.5970

     occupation numbers 
     1.0000   1.0000   1.0000   0.5000   0.5000   0.0000   0.0000   0.0000

     the Fermi energy is    -2.3299 ev

!    total energy              =     -36.88581823 Ry
     total all-electron energy =      -152.414014 Ry
     estimated scf accuracy    <       0.00000106 Ry
     smearing contrib. (-TS)   =      -0.00000091 Ry
     internal energy E=F+TS    =     -36.88581732 Ry

     The total energy is F=E-TS. E is the sum of the following terms:
     one-electron contribution =    -224.86880347 Ry
     hartree contribution      =     113.87368176 Ry
     xc contribution           =      -9.28466083 Ry
     ewald contribution        =      95.72438432 Ry
     scf correction            =       0.00399580 Ry
     one-center paw contrib.   =     -12.33441490 Ry
      -> PAW hartree energy AE =       9.55728147 Ry
      -> PAW hartree energy PS =      -9.54860449 Ry
      -> PAW xc energy AE      =     -10.69024436 Ry
      -> PAW xc energy PS      =       4.51435993 Ry
      -> total E_H with PAW    =     113.88235874 Ry
      -> total E_XC with PAW   =     -15.46054526 Ry

     iteration #  6     ecut=    40.00 Ry     beta= 0.30
     Davidson diagonalization with overlap

---- Real-time Memory Report at c_bands before calling an iterative solver
            93 MiB given to the printing process from OS
            67 MiB allocation reported by mallinfo(arena+hblkhd)
          2096 MiB available memory on the node where the printing process lives
------------------
     c_bands:  1 eigenvalues not converged
     ethr =  1.32E-08,  avg # of iterations =  6.2

     negative rho (up, down):  1.548E-04 0.000E+00

     total cpu time spent up to now is       76.0 secs

          k = 0.0000 0.0000 0.0000     band energies (ev):

   -21.9110  -9.9958  -5.3717  -5.3717   0.8481   1.5133   1.6416   2.6533

     occupation numbers 
     1.0000   1.0000   1.0000   1.0000   0.0000   0.0000   0.0000   0.0000

          k = 0.0000 0.0962 0.0000     band energies (ev):

   -21.7464  -9.7987  -6.0246  -5.7128   1.0725   1.7410   1.8707   2.8804

     occupation numbers 
     1.0000   1.0000   1.0000   1.0000   0.0000   0.0000   0.0000   0.0000

          k = 0.0000 0.1925 0.0000     band energies (ev):

   -21.2542  -9.2124  -7.6692  -6.5118   1.7459   2.4232   2.5580   3.5598

     occupation numbers 
     1.0000   1.0000   1.0000   1.0000   0.0000   0.0000   0.0000   0.0000

          k = 0.0000 0.2887 0.0000     band energies (ev):

   -20.4402  -9.7767  -8.2564  -7.3983   2.8661   3.5499   3.7035   4.6476

     occupation numbers 
     1.0000   1.0000   1.0000   1.0000   0.0000   0.0000   0.0000   0.0000

          k = 0.0000 0.3849 0.0000     band energies (ev):

   -19.3166 -11.9898  -8.1372  -6.9807   2.6170   4.4228   5.1620   5.2955

     occupation numbers 
     1.0000   1.0000   1.0000   1.0000   0.0000   0.0000   0.0000   0.0000

          k = 0.0000 0.4811 0.0000     band energies (ev):

   -17.9139 -14.1006  -8.6134  -5.5491   0.4671   5.2131   6.4450   7.1855

     occupation numbers 
     1.0000   1.0000   1.0000   1.0000   0.0000   0.0000   0.0000   0.0000

          k = 0.0000-0.5774 0.0000     band energies (ev):

   -16.6375 -15.6209  -8.7770  -4.6986  -0.6391   5.1352   8.7707   8.9119

     occupation numbers 
     1.0000   1.0000   1.0000   1.0000   0.0000   0.0000   0.0000   0.0000

          k = 0.0833 0.1443 0.0000     band energies (ev):

   -21.4179  -9.4069  -7.0622  -6.3959   1.5217   2.1960   2.3289   3.3338

     occupation numbers 
     1.0000   1.0000   1.0000   1.0000   0.0000   0.0000   0.0000   0.0000

          k = 0.0833 0.2406 0.0000     band energies (ev):

   -20.7649  -8.7789  -8.6345  -7.4012   2.4191   3.1035   3.2454   4.2367

     occupation numbers 
     1.0000   1.0000   1.0000   1.0000   0.0000   0.0000   0.0000   0.0000

          k = 0.0833 0.3368 0.0000     band energies (ev):

   -19.7960 -10.8613  -8.2934  -7.5122   3.6350   3.7612   4.4833   4.6201

     occupation numbers 
     1.0000   1.0000   1.0000   1.0000   0.0000   0.0000   0.0000   0.0000

          k = 0.0833 0.4330 0.0000     band energies (ev):

   -18.5298 -12.9943  -8.9324  -6.1243   1.4218   5.5254   6.0629   6.2749

     occupation numbers 
     1.0000   1.0000   1.0000   1.0000   0.0000   0.0000   0.0000   0.0000

          k = 0.0833 0.5292 0.0000     band energies (ev):

   -17.0413 -14.9473  -9.2628  -4.8064  -0.3597   5.8760   7.7529   8.4868

     occupation numbers 
     1.0000   1.0000   1.0000   1.0000   0.0000   0.0000   0.0000   0.0000

          k = 0.1667 0.2887 0.0000     band energies (ev):

   -19.9568 -10.1126  -8.7732  -7.6919   3.5395   4.0990   4.2335   4.3915

     occupation numbers 
     1.0000   1.0000   1.0000   1.0000   0.0000   0.0000   0.0000   0.0000

          k = 0.1667 0.3849 0.0000     band energies (ev):

   -18.8441 -11.8481  -9.8352  -6.4316   2.1378   5.0990   5.8006   5.9946

     occupation numbers 
     1.0000   1.0000   1.0000   1.0000   0.0000   0.0000   0.0000   0.0000

          k = 0.1667 0.4811 0.0000     band energies (ev):

   -17.4614 -13.7694 -10.4133  -4.9959   0.2122   7.0738   7.7469   7.7904

     occupation numbers 
     1.0000   1.0000   1.0000   1.0000   0.0000   0.0000   0.0000   0.0000

          k = 0.1667 0.5774 0.0000     band energies (ev):

   -16.2152 -15.2175 -10.5988  -4.0969  -0.8639   7.6908   9.3417   9.5270

     occupation numbers 
     1.0000   1.0000   1.0000   1.0000   0.0000   0.0000   0.0000   0.0000

          k = 0.2500 0.4330 0.0000     band energies (ev):

   -17.6101 -12.8840 -11.3299  -5.0808   0.5138   6.8610   7.4721   7.8254

     occupation numbers 
     1.0000   1.0000   1.0000   1.0000   0.0000   0.0000   0.0000   0.0000

          k = 0.2500 0.5292 0.0000     band energies (ev):

   -16.1794 -14.3145 -12.0402  -3.6861  -1.0165   8.5566   8.9770   9.9537

     occupation numbers 
     1.0000   1.0000   1.0000   1.0000   0.0000   0.0000   0.0000   0.0000

          k = 0.3333 0.5774 0.0000     band energies (ev):

   -14.9542 -14.9542 -12.9483  -2.3217  -2.3217   8.3008  10.6018  10.6021

     occupation numbers 
     1.0000   1.0000   1.0000   0.5000   0.5000   0.0000   0.0000   0.0000

     the Fermi energy is    -2.3215 ev

!    total energy              =     -36.88581981 Ry
     total all-electron energy =      -152.414015 Ry
     estimated scf accuracy    <       0.00000062 Ry
     smearing contrib. (-TS)   =      -0.00000091 Ry
     internal energy E=F+TS    =     -36.88581889 Ry

     The total energy is F=E-TS. E is the sum of the following terms:
     one-electron contribution =    -224.86427218 Ry
     hartree contribution      =     113.87410823 Ry
     xc contribution           =      -9.28432228 Ry
     ewald contribution        =      95.72438432 Ry
     scf correction            =      -0.00148191 Ry
     one-center paw contrib.   =     -12.33423507 Ry
      -> PAW hartree energy AE =       9.56715696 Ry
      -> PAW hartree energy PS =      -9.55848607 Ry
      -> PAW xc energy AE      =     -10.69248836 Ry
      -> PAW xc energy PS      =       4.51669993 Ry
      -> total E_H with PAW    =     113.88277912 Ry
      -> total E_XC with PAW   =     -15.46011071 Ry

     iteration #  7     ecut=    40.00 Ry     beta= 0.30
     Davidson diagonalization with overlap

---- Real-time Memory Report at c_bands before calling an iterative solver
            94 MiB given to the printing process from OS
            67 MiB allocation reported by mallinfo(arena+hblkhd)
          2094 MiB available memory on the node where the printing process lives
------------------
     ethr =  7.78E-09,  avg # of iterations =  2.0

     negative rho (up, down):  1.413E-04 0.000E+00

     total cpu time spent up to now is       83.6 secs

          k = 0.0000 0.0000 0.0000     band energies (ev):

   -21.9100  -9.9937  -5.3721  -5.3721   0.8523   1.5183   1.6463   2.6582

     occupation numbers 
     1.0000   1.0000   1.0000   1.0000   0.0000   0.0000   0.0000   0.0000

          k = 0.0000 0.0962 0.0000     band energies (ev):

   -21.7454  -9.7965  -6.0249  -5.7131   1.0767   1.7460   1.8754   2.8853

     occupation numbers 
     1.0000   1.0000   1.0000   1.0000   0.0000   0.0000   0.0000   0.0000

          k = 0.0000 0.1925 0.0000     band energies (ev):

   -21.2532  -9.2103  -7.6693  -6.5121   1.7501   2.4282   2.5627   3.5647

     occupation numbers 
     1.0000   1.0000   1.0000   1.0000   0.0000   0.0000   0.0000   0.0000

          k = 0.0000 0.2887 0.0000     band energies (ev):

   -20.4393  -9.7765  -8.2543  -7.3985   2.8703   3.5549   3.7082   4.6520

     occupation numbers 
     1.0000   1.0000   1.0000   1.0000   0.0000   0.0000   0.0000   0.0000

          k = 0.0000 0.3849 0.0000     band energies (ev):

   -19.3158 -11.9894  -8.1374  -6.9788   2.6186   4.4268   5.1670   5.2999

     occupation numbers 
     1.0000   1.0000   1.0000   1.0000   0.0000   0.0000   0.0000   0.0000

          k = 0.0000 0.4811 0.0000     band energies (ev):

   -17.9132 -14.1000  -8.6136  -5.5474   0.4689   5.2150   6.4492   7.1904

     occupation numbers 
     1.0000   1.0000   1.0000   1.0000   0.0000   0.0000   0.0000   0.0000

          k = 0.0000-0.5774 0.0000     band energies (ev):

   -16.6371 -15.6200  -8.7772  -4.6972  -0.6370   5.1372   8.7740   8.9165

     occupation numbers 
     1.0000   1.0000   1.0000   1.0000   0.0000   0.0000   0.0000   0.0000

          k = 0.0833 0.1443 0.0000     band energies (ev):

   -21.4170  -9.4048  -7.0624  -6.3962   1.5259   2.2010   2.3336   3.3386

     occupation numbers 
     1.0000   1.0000   1.0000   1.0000   0.0000   0.0000   0.0000   0.0000

          k = 0.0833 0.2406 0.0000     band energies (ev):

   -20.7639  -8.7789  -8.6324  -7.4014   2.4233   3.1086   3.2502   4.2416

     occupation numbers 
     1.0000   1.0000   1.0000   1.0000   0.0000   0.0000   0.0000   0.0000

          k = 0.0833 0.3368 0.0000     band energies (ev):

   -19.7951 -10.8611  -8.2935  -7.5102   3.6364   3.7653   4.4882   4.6248

     occupation numbers 
     1.0000   1.0000   1.0000   1.0000   0.0000   0.0000   0.0000   0.0000

          k = 0.0833 0.4330 0.0000     band energies (ev):

   -18.5291 -12.9939  -8.9324  -6.1225   1.4234   5.5292   6.0649   6.2798

     occupation numbers 
     1.0000   1.0000   1.0000   1.0000   0.0000   0.0000   0.0000   0.0000

          k = 0.0833 0.5292 0.0000     band energies (ev):

   -17.0407 -14.9467  -9.2629  -4.8048  -0.3578   5.8778   7.7569   8.4915

     occupation numbers 
     1.0000   1.0000   1.0000   1.0000   0.0000   0.0000   0.0000   0.0000

          k = 0.1667 0.2887 0.0000     band energies (ev):

   -19.9559 -10.1126  -8.7731  -7.6899   3.5436   4.1001   4.2385   4.3962

     occupation numbers 
     1.0000   1.0000   1.0000   1.0000   0.0000   0.0000   0.0000   0.0000

          k = 0.1667 0.3849 0.0000     band energies (ev):

   -18.8433 -11.8479  -9.8350  -6.4297   2.1391   5.1031   5.8055   5.9994

     occupation numbers 
     1.0000   1.0000   1.0000   1.0000   0.0000   0.0000   0.0000   0.0000

          k = 0.1667 0.4811 0.0000     band energies (ev):

   -17.4607 -13.7689 -10.4131  -4.9943   0.2138   7.0777   7.7517   7.7921

     occupation numbers 
     1.0000   1.0000   1.0000   1.0000   0.0000   0.0000   0.0000   0.0000

          k = 0.1667 0.5774 0.0000     band energies (ev):

   -16.2148 -15.2167 -10.5986  -4.0955  -0.8621   7.6923   9.3448   9.5315

     occupation numbers 
     1.0000   1.0000   1.0000   1.0000   0.0000   0.0000   0.0000   0.0000

          k = 0.2500 0.4330 0.0000     band energies (ev):

   -17.6095 -12.8838 -11.3293  -5.0791   0.5151   6.8650   7.4769   7.8301

     occupation numbers 
     1.0000   1.0000   1.0000   1.0000   0.0000   0.0000   0.0000   0.0000

          k = 0.2500 0.5292 0.0000     band energies (ev):

   -16.1789 -14.3141 -12.0396  -3.6846  -1.0151   8.5619   8.9806   9.9553

     occupation numbers 
     1.0000   1.0000   1.0000   1.0000   0.0000   0.0000   0.0000   0.0000

          k = 0.3333 0.5774 0.0000     band energies (ev):

   -14.9539 -14.9539 -12.9474  -2.3202  -2.3202   8.3064  10.6037  10.6038

     occupation numbers 
     1.0000   1.0000   1.0000   0.5000   0.5000   0.0000   0.0000   0.0000

     the Fermi energy is    -2.3201 ev

!    total energy              =     -36.88581989 Ry
     total all-electron energy =      -152.414016 Ry
     estimated scf accuracy    <       0.00000002 Ry
     smearing contrib. (-TS)   =      -0.00000091 Ry
     internal energy E=F+TS    =     -36.88581898 Ry

     The total energy is F=E-TS. E is the sum of the following terms:
     one-electron contribution =    -224.86555199 Ry
     hartree contribution      =     113.87456101 Ry
     xc contribution           =      -9.28445192 Ry
     ewald contribution        =      95.72438432 Ry
     scf correction            =      -0.00052432 Ry
     one-center paw contrib.   =     -12.33423608 Ry
      -> PAW hartree energy AE =       9.56800871 Ry
      -> PAW hartree energy PS =      -9.55933750 Ry
      -> PAW xc energy AE      =     -10.69269140 Ry
      -> PAW xc energy PS      =       4.51690216 Ry
      -> total E_H with PAW    =     113.88323222 Ry
      -> total E_XC with PAW   =     -15.46024117 Ry

     iteration #  8     ecut=    40.00 Ry     beta= 0.30
     Davidson diagonalization with overlap

---- Real-time Memory Report at c_bands before calling an iterative solver
            94 MiB given to the printing process from OS
            68 MiB allocation reported by mallinfo(arena+hblkhd)
          2093 MiB available memory on the node where the printing process lives
------------------
     ethr =  2.13E-10,  avg # of iterations =  2.2

     negative rho (up, down):  1.339E-04 0.000E+00

     total cpu time spent up to now is       92.3 secs

          k = 0.0000 0.0000 0.0000     band energies (ev):

   -21.9093  -9.9934  -5.3710  -5.3710   0.8526   1.5196   1.6487   2.6598

     occupation numbers 
     1.0000   1.0000   1.0000   1.0000   0.0000   0.0000   0.0000   0.0000

          k = 0.0000 0.0962 0.0000     band energies (ev):

   -21.7447  -9.7962  -6.0239  -5.7121   1.0771   1.7473   1.8778   2.8868

     occupation numbers 
     1.0000   1.0000   1.0000   1.0000   0.0000   0.0000   0.0000   0.0000

          k = 0.0000 0.1925 0.0000     band energies (ev):

   -21.2525  -9.2100  -7.6684  -6.5110   1.7504   2.4295   2.5652   3.5662

     occupation numbers 
     1.0000   1.0000   1.0000   1.0000   0.0000   0.0000   0.0000   0.0000

          k = 0.0000 0.2887 0.0000     band energies (ev):

   -20.4386  -9.7756  -8.2540  -7.3975   2.8705   3.5561   3.7107   4.6535

     occupation numbers 
     1.0000   1.0000   1.0000   1.0000   0.0000   0.0000   0.0000   0.0000

          k = 0.0000 0.3849 0.0000     band energies (ev):

   -19.3150 -11.9886  -8.1364  -6.9785   2.6190   4.4271   5.1682   5.3023

     occupation numbers 
     1.0000   1.0000   1.0000   1.0000   0.0000   0.0000   0.0000   0.0000

          k = 0.0000 0.4811 0.0000     band energies (ev):

   -17.9124 -14.0992  -8.6126  -5.5471   0.4693   5.2155   6.4493   7.1914

     occupation numbers 
     1.0000   1.0000   1.0000   1.0000   0.0000   0.0000   0.0000   0.0000

          k = 0.0000-0.5774 0.0000     band energies (ev):

   -16.6363 -15.6192  -8.7762  -4.6967  -0.6367   5.1377   8.7741   8.9167

     occupation numbers 
     1.0000   1.0000   1.0000   1.0000   0.0000   0.0000   0.0000   0.0000

          k = 0.0833 0.1443 0.0000     band energies (ev):

   -21.4163  -9.4045  -7.0614  -6.3952   1.5262   2.2023   2.3361   3.3401

     occupation numbers 
     1.0000   1.0000   1.0000   1.0000   0.0000   0.0000   0.0000   0.0000

          k = 0.0833 0.2406 0.0000     band energies (ev):

   -20.7632  -8.7780  -8.6321  -7.4004   2.4236   3.1098   3.2527   4.2432

     occupation numbers 
     1.0000   1.0000   1.0000   1.0000   0.0000   0.0000   0.0000   0.0000

          k = 0.0833 0.3368 0.0000     band energies (ev):

   -19.7944 -10.8602  -8.2925  -7.5099   3.6369   3.7655   4.4895   4.6272

     occupation numbers 
     1.0000   1.0000   1.0000   1.0000   0.0000   0.0000   0.0000   0.0000

          k = 0.0833 0.4330 0.0000     band energies (ev):

   -18.5283 -12.9930  -8.9315  -6.1221   1.4238   5.5294   6.0655   6.2809

     occupation numbers 
     1.0000   1.0000   1.0000   1.0000   0.0000   0.0000   0.0000   0.0000

          k = 0.0833 0.5292 0.0000     band energies (ev):

   -17.0399 -14.9459  -9.2619  -4.8044  -0.3574   5.8784   7.7570   8.4924

     occupation numbers 
     1.0000   1.0000   1.0000   1.0000   0.0000   0.0000   0.0000   0.0000

          k = 0.1667 0.2887 0.0000     band energies (ev):

   -19.9552 -10.1116  -8.7722  -7.6896   3.5438   4.1007   4.2397   4.3986

     occupation numbers 
     1.0000   1.0000   1.0000   1.0000   0.0000   0.0000   0.0000   0.0000

          k = 0.1667 0.3849 0.0000     band energies (ev):

   -18.8426 -11.8470  -9.8341  -6.4294   2.1396   5.1033   5.8066   6.0019

     occupation numbers 
     1.0000   1.0000   1.0000   1.0000   0.0000   0.0000   0.0000   0.0000

          k = 0.1667 0.4811 0.0000     band energies (ev):

   -17.4600 -13.7681 -10.4122  -4.9939   0.2142   7.0778   7.7525   7.7927

     occupation numbers 
     1.0000   1.0000   1.0000   1.0000   0.0000   0.0000   0.0000   0.0000

          k = 0.1667 0.5774 0.0000     band energies (ev):

   -16.2140 -15.2159 -10.5977  -4.0951  -0.8617   7.6929   9.3449   9.5315

     occupation numbers 
     1.0000   1.0000   1.0000   1.0000   0.0000   0.0000   0.0000   0.0000

          k = 0.2500 0.4330 0.0000     band energies (ev):

   -17.6087 -12.8829 -11.3285  -5.0787   0.5156   6.8651   7.4775   7.8327

     occupation numbers 
     1.0000   1.0000   1.0000   1.0000   0.0000   0.0000   0.0000   0.0000

          k = 0.2500 0.5292 0.0000     band energies (ev):

   -16.1781 -14.3133 -12.0388  -3.6841  -1.0146   8.5616   8.9807   9.9559

     occupation numbers 
     1.0000   1.0000   1.0000   1.0000   0.0000   0.0000   0.0000   0.0000

          k = 0.3333 0.5774 0.0000     band energies (ev):

   -14.9531 -14.9531 -12.9466  -2.3198  -2.3198   8.3061  10.6039  10.6040

     occupation numbers 
     1.0000   1.0000   1.0000   0.5000   0.5000   0.0000   0.0000   0.0000

     the Fermi energy is    -2.3196 ev

!    total energy              =     -36.88581990 Ry
     total all-electron energy =      -152.414016 Ry
     estimated scf accuracy    <       0.00000001 Ry
     smearing contrib. (-TS)   =      -0.00000091 Ry
     internal energy E=F+TS    =     -36.88581899 Ry

     The total energy is F=E-TS. E is the sum of the following terms:
     one-electron contribution =    -224.86514579 Ry
     hartree contribution      =     113.87382687 Ry
     xc contribution           =      -9.28436280 Ry
     ewald contribution        =      95.72438432 Ry
     scf correction            =      -0.00025190 Ry
     one-center paw contrib.   =     -12.33426968 Ry
      -> PAW hartree energy AE =       9.56695727 Ry
      -> PAW hartree energy PS =      -9.55828509 Ry
      -> PAW xc energy AE      =     -10.69245583 Ry
      -> PAW xc energy PS      =       4.51664880 Ry
      -> total E_H with PAW    =     113.88249906 Ry
      -> total E_XC with PAW   =     -15.46016983 Ry

     iteration #  9     ecut=    40.00 Ry     beta= 0.30
     Davidson diagonalization with overlap

---- Real-time Memory Report at c_bands before calling an iterative solver
            95 MiB given to the printing process from OS
            68 MiB allocation reported by mallinfo(arena+hblkhd)
          2082 MiB available memory on the node where the printing process lives
------------------
     ethr =  1.38E-10,  avg # of iterations =  2.0

     negative rho (up, down):  1.258E-04 0.000E+00

     total cpu time spent up to now is      107.9 secs

     End of self-consistent calculation

          k = 0.0000 0.0000 0.0000 (  3053 PWs)   bands (ev):

   -21.9105  -9.9943  -5.3724  -5.3724   0.8530   1.5207   1.6499   2.6608

     occupation numbers 
     1.0000   1.0000   1.0000   1.0000   0.0000   0.0000   0.0000   0.0000

          k = 0.0000 0.0962 0.0000 (  3034 PWs)   bands (ev):

   -21.7459  -9.7972  -6.0252  -5.7135   1.0774   1.7484   1.8790   2.8878

     occupation numbers 
     1.0000   1.0000   1.0000   1.0000   0.0000   0.0000   0.0000   0.0000

          k = 0.0000 0.1925 0.0000 (  3042 PWs)   bands (ev):

   -21.2537  -9.2110  -7.6697  -6.5124   1.7507   2.4305   2.5664   3.5672

     occupation numbers 
     1.0000   1.0000   1.0000   1.0000   0.0000   0.0000   0.0000   0.0000

          k = 0.0000 0.2887 0.0000 (  3030 PWs)   bands (ev):

   -20.4398  -9.7770  -8.2550  -7.3989   2.8708   3.5571   3.7119   4.6542

     occupation numbers 
     1.0000   1.0000   1.0000   1.0000   0.0000   0.0000   0.0000   0.0000

          k = 0.0000 0.3849 0.0000 (  3024 PWs)   bands (ev):

   -19.3162 -11.9899  -8.1378  -6.9794   2.6180   4.4273   5.1692   5.3033

     occupation numbers 
     1.0000   1.0000   1.0000   1.0000   0.0000   0.0000   0.0000   0.0000

          k = 0.0000 0.4811 0.0000 (  3034 PWs)   bands (ev):

   -17.9136 -14.1005  -8.6140  -5.5481   0.4683   5.2144   6.4495   7.1922

     occupation numbers 
     1.0000   1.0000   1.0000   1.0000   0.0000   0.0000   0.0000   0.0000

          k = 0.0000-0.5774 0.0000 (  3036 PWs)   bands (ev):

   -16.6376 -15.6205  -8.7776  -4.6978  -0.6376   5.1366   8.7741   8.9169

     occupation numbers 
     1.0000   1.0000   1.0000   1.0000   0.0000   0.0000   0.0000   0.0000

          k = 0.0833 0.1443 0.0000 (  3043 PWs)   bands (ev):

   -21.4175  -9.4054  -7.0628  -6.3965   1.5265   2.2033   2.3373   3.3411

     occupation numbers 
     1.0000   1.0000   1.0000   1.0000   0.0000   0.0000   0.0000   0.0000

          k = 0.0833 0.2406 0.0000 (  3029 PWs)   bands (ev):

   -20.7644  -8.7793  -8.6330  -7.4018   2.4240   3.1108   3.2539   4.2442

     occupation numbers 
     1.0000   1.0000   1.0000   1.0000   0.0000   0.0000   0.0000   0.0000

          k = 0.0833 0.3368 0.0000 (  3026 PWs)   bands (ev):

   -19.7956 -10.8615  -8.2939  -7.5108   3.6359   3.7658   4.4905   4.6285

     occupation numbers 
     1.0000   1.0000   1.0000   1.0000   0.0000   0.0000   0.0000   0.0000

          k = 0.0833 0.4330 0.0000 (  3023 PWs)   bands (ev):

   -18.5296 -12.9943  -8.9328  -6.1231   1.4228   5.5296   6.0644   6.2818

     occupation numbers 
     1.0000   1.0000   1.0000   1.0000   0.0000   0.0000   0.0000   0.0000

          k = 0.0833 0.5292 0.0000 (  3021 PWs)   bands (ev):

   -17.0412 -14.9471  -9.2633  -4.8054  -0.3584   5.8772   7.7572   8.4931

     occupation numbers 
     1.0000   1.0000   1.0000   1.0000   0.0000   0.0000   0.0000   0.0000

          k = 0.1667 0.2887 0.0000 (  3017 PWs)   bands (ev):

   -19.9564 -10.1130  -8.7735  -7.6906   3.5441   4.0996   4.2407   4.3999

     occupation numbers 
     1.0000   1.0000   1.0000   1.0000   0.0000   0.0000   0.0000   0.0000

          k = 0.1667 0.3849 0.0000 (  3024 PWs)   bands (ev):

   -18.8438 -11.8483  -9.8354  -6.4303   2.1385   5.1036   5.8075   6.0032

     occupation numbers 
     1.0000   1.0000   1.0000   1.0000   0.0000   0.0000   0.0000   0.0000

          k = 0.1667 0.4811 0.0000 (  3015 PWs)   bands (ev):

   -17.4612 -13.7694 -10.4135  -4.9949   0.2132   7.0780   7.7532   7.7916

     occupation numbers 
     1.0000   1.0000   1.0000   1.0000   0.0000   0.0000   0.0000   0.0000

          k = 0.1667 0.5774 0.0000 (  2996 PWs)   bands (ev):

   -16.2153 -15.2172 -10.5990  -4.0961  -0.8627   7.6918   9.3448   9.5317

     occupation numbers 
     1.0000   1.0000   1.0000   1.0000   0.0000   0.0000   0.0000   0.0000

          k = 0.2500 0.4330 0.0000 (  3009 PWs)   bands (ev):

   -17.6099 -12.8842 -11.3298  -5.0797   0.5145   6.8653   7.4781   7.8340

     occupation numbers 
     1.0000   1.0000   1.0000   1.0000   0.0000   0.0000   0.0000   0.0000

          k = 0.2500 0.5292 0.0000 (  2995 PWs)   bands (ev):

   -16.1794 -14.3146 -12.0401  -3.6852  -1.0156   8.5613   8.9807   9.9549

     occupation numbers 
     1.0000   1.0000   1.0000   1.0000   0.0000   0.0000   0.0000   0.0000

          k = 0.3333 0.5774 0.0000 (  2967 PWs)   bands (ev):

   -14.9544 -14.9544 -12.9479  -2.3208  -2.3208   8.3057  10.6033  10.6034

     occupation numbers 
     1.0000   1.0000   1.0000   0.5000   0.5000   0.0000   0.0000   0.0000

     the Fermi energy is    -2.3206 ev

!    total energy              =     -36.88581993 Ry
     total all-electron energy =      -152.414016 Ry
     estimated scf accuracy    <          6.4E-11 Ry
     smearing contrib. (-TS)   =      -0.00000091 Ry
     internal energy E=F+TS    =     -36.88581901 Ry

     The total energy is F=E-TS. E is the sum of the following terms:
     one-electron contribution =    -224.86547971 Ry
     hartree contribution      =     113.87391597 Ry
     xc contribution           =      -9.28437412 Ry
     ewald contribution        =      95.72438432 Ry
     one-center paw contrib.   =     -12.33426548 Ry
      -> PAW hartree energy AE =       9.56705006 Ry
      -> PAW hartree energy PS =      -9.55837800 Ry
      -> PAW xc energy AE      =     -10.69247612 Ry
      -> PAW xc energy PS      =       4.51667132 Ry
      -> total E_H with PAW    =     113.88258803 Ry
      -> total E_XC with PAW   =     -15.46017893 Ry

     convergence has been achieved in   9 iterations

     negative rho (up, down):  1.258E-04 0.000E+00

     Forces acting on atoms (cartesian axes, Ry/au):

     atom    1 type  1   force =     0.00000000    0.00000000    0.00000000
     atom    2 type  1   force =     0.00000000    0.00000000    0.00000000
     The non-local contrib.  to forces
     atom    1 type  1   force =     0.00000000   -0.00000000    0.00000000
     atom    2 type  1   force =     0.00000000    0.00000000    0.00000000
     The ionic contribution  to forces
     atom    1 type  1   force =    -0.00000001    0.00000000   -0.00000000
     atom    2 type  1   force =     0.00000001   -0.00000000   -0.00000000
     The local contribution  to forces
     atom    1 type  1   force =     0.00000000   -0.00000000    0.00000000
     atom    2 type  1   force =     0.00000001   -0.00000000    0.00000000
     The core correction contribution to forces
     atom    1 type  1   force =    -0.00000000    0.00000000    0.00000000
     atom    2 type  1   force =    -0.00000000    0.00000000    0.00000000
     The Hubbard contrib.    to forces
     atom    1 type  1   force =     0.00000000    0.00000000    0.00000000
     atom    2 type  1   force =     0.00000000    0.00000000    0.00000000
     The SCF correction term to forces
[...]

     negative rho (up, down):  1.285E-04 0.000E+00

     total cpu time spent up to now is      770.4 secs

          k = 0.0000 0.0000 0.0000     band energies (ev):

   -21.8802  -9.9729  -5.4003  -5.4003   0.8493   1.5161   1.6447   2.6551

     occupation numbers 
     1.0000   1.0000   1.0000   1.0000   0.0000   0.0000   0.0000   0.0000

          k = 0.0000 0.0960 0.0000     band energies (ev):

   -21.7163  -9.7769  -6.0516  -5.7391   1.0728   1.7427   1.8728   2.8809

     occupation numbers 
     1.0000   1.0000   1.0000   1.0000   0.0000   0.0000   0.0000   0.0000

          k = 0.0000 0.1920 0.0000     band energies (ev):

   -21.2261  -9.1940  -7.6909  -6.5324   1.7430   2.4216   2.5570   3.5572

     occupation numbers 
     1.0000   1.0000   1.0000   1.0000   0.0000   0.0000   0.0000   0.0000

          k = 0.0000 0.2880 0.0000     band energies (ev):

   -20.4156  -9.7907  -8.2435  -7.4134   2.8580   3.5426   3.6973   4.6318

     occupation numbers 
     1.0000   1.0000   1.0000   1.0000   0.0000   0.0000   0.0000   0.0000

          k = 0.0000 0.3840 0.0000     band energies (ev):

   -19.2969 -11.9952  -8.1476  -6.9756   2.5651   4.4069   5.1470   5.2745

     occupation numbers 
     1.0000   1.0000   1.0000   1.0000   0.0000   0.0000   0.0000   0.0000

          k = 0.0000 0.4800 0.0000     band energies (ev):

   -17.9012 -14.0961  -8.6211  -5.5535   0.4312   5.1224   6.4193   7.1604

     occupation numbers 
     1.0000   1.0000   1.0000   1.0000   0.0000   0.0000   0.0000   0.0000

          k =-0.0000-0.5760 0.0000     band energies (ev):

   -16.6389 -15.6014  -8.7838  -4.7094  -0.6661   5.0431   8.7332   8.8757

     occupation numbers 
     1.0000   1.0000   1.0000   1.0000   0.0000   0.0000   0.0000   0.0000

          k = 0.0831 0.1440 0.0000     band energies (ev):

   -21.3892  -9.3873  -7.0865  -6.4174   1.5198   2.1955   2.3290   3.3321

     occupation numbers 
     1.0000   1.0000   1.0000   1.0000   0.0000   0.0000   0.0000   0.0000

          k = 0.0831 0.2400 0.0000     band energies (ev):

   -20.7388  -8.7977  -8.6194  -7.4163   2.4132   3.0987   3.2414   4.2309

     occupation numbers 
     1.0000   1.0000   1.0000   1.0000   0.0000   0.0000   0.0000   0.0000

          k = 0.0831 0.3360 0.0000     band energies (ev):

   -19.7741 -10.8718  -8.3034  -7.5037   3.5753   3.7488   4.4707   4.6095

     occupation numbers 
     1.0000   1.0000   1.0000   1.0000   0.0000   0.0000   0.0000   0.0000

          k = 0.0831 0.4320 0.0000     band energies (ev):

   -18.5138 -12.9957  -8.9390  -6.1245   1.3777   5.5020   5.9736   6.2543

     occupation numbers 
     1.0000   1.0000   1.0000   1.0000   0.0000   0.0000   0.0000   0.0000

          k = 0.0831 0.5280 0.0000     band energies (ev):

   -17.0347 -14.9373  -9.2678  -4.8159  -0.3901   5.7819   7.7212   8.4542

     occupation numbers 
     1.0000   1.0000   1.0000   1.0000   0.0000   0.0000   0.0000   0.0000

          k = 0.1663 0.2880 0.0000     band energies (ev):

   -19.9342 -10.1290  -8.7790  -7.6824   3.5282   4.0329   4.2233   4.3821

     occupation numbers 
     1.0000   1.0000   1.0000   1.0000   0.0000   0.0000   0.0000   0.0000

          k = 0.1663 0.3840 0.0000     band energies (ev):

   -18.8264 -11.8574  -9.8363  -6.4297   2.0860   5.0804   5.7825   5.9781

     occupation numbers 
     1.0000   1.0000   1.0000   1.0000   0.0000   0.0000   0.0000   0.0000

          k = 0.1663 0.4800 0.0000     band energies (ev):

   -17.4507 -13.7685 -10.4129  -5.0035   0.1745   7.0445   7.6935   7.7180

     occupation numbers 
     1.0000   1.0000   1.0000   1.0000   0.0000   0.0000   0.0000   0.0000

          k = 0.1663 0.5760 0.0000     band energies (ev):

   -16.2174 -15.2026 -10.5977  -4.1112  -0.8931   7.5905   9.2439   9.2999

     occupation numbers 
     1.0000   1.0000   1.0000   1.0000   0.0000   0.0000   0.0000   0.0000

          k = 0.2494 0.4320 0.0000     band energies (ev):

   -17.5984 -12.8937 -11.3197  -5.0875   0.4720   6.8338   7.4442   7.8003

     occupation numbers 
     1.0000   1.0000   1.0000   1.0000   0.0000   0.0000   0.0000   0.0000

          k = 0.2494 0.5280 0.0000     band energies (ev):

   -16.1764 -14.3150 -12.0277  -3.7021  -1.0481   8.5219   8.9371   9.8524

     occupation numbers 
     1.0000   1.0000   1.0000   1.0000   0.0000   0.0000   0.0000   0.0000

          k = 0.3326 0.5760 0.0000     band energies (ev):

   -14.9593 -14.9593 -12.9224  -2.3463  -2.3463   8.2702  10.5310  10.5310

     occupation numbers 
     1.0000   1.0000   1.0000   0.5000   0.5000   0.0000   0.0000   0.0000

     the Fermi energy is    -2.3461 ev

!    total energy              =     -36.88591026 Ry
     total all-electron energy =      -152.414106 Ry
     estimated scf accuracy    <          9.3E-12 Ry
     smearing contrib. (-TS)   =      -0.00000091 Ry
     internal energy E=F+TS    =     -36.88590935 Ry

     The total energy is F=E-TS. E is the sum of the following terms:
     one-electron contribution =    -223.81342483 Ry
     hartree contribution      =     113.34132499 Ry
     xc contribution           =      -9.27399338 Ry
     ewald contribution        =      95.19398338 Ry
     scf correction            =       0.00000830 Ry
     one-center paw contrib.   =     -12.33380781 Ry
      -> PAW hartree energy AE =       9.50238545 Ry
      -> PAW hartree energy PS =      -9.49374894 Ry
      -> PAW xc energy AE      =     -10.67683697 Ry
      -> PAW xc energy PS      =       4.50129656 Ry
      -> total E_H with PAW    =     113.34996150 Ry
      -> total E_XC with PAW   =     -15.44953379 Ry

     iteration # 11     ecut=    40.00 Ry     beta= 0.30
     Davidson diagonalization with overlap

---- Real-time Memory Report at c_bands before calling an iterative solver
           491 MiB given to the printing process from OS
            71 MiB allocation reported by mallinfo(arena+hblkhd)
          1579 MiB available memory on the node where the printing process lives
------------------
     ethr =  1.17E-13,  avg # of iterations =  2.0

     negative rho (up, down):  1.263E-04 0.000E+00

     total cpu time spent up to now is      785.5 secs

     End of self-consistent calculation

          k = 0.0000 0.0000 0.0000 (  3053 PWs)   bands (ev):

   -21.8802  -9.9728  -5.4003  -5.4003   0.8495   1.5163   1.6451   2.6553

     occupation numbers 
     1.0000   1.0000   1.0000   1.0000   0.0000   0.0000   0.0000   0.0000

          k = 0.0000 0.0960 0.0000 (  3048 PWs)   bands (ev):

   -21.7162  -9.7768  -6.0515  -5.7390   1.0729   1.7429   1.8732   2.8812

     occupation numbers 
     1.0000   1.0000   1.0000   1.0000   0.0000   0.0000   0.0000   0.0000

          k = 0.0000 0.1920 0.0000 (  3046 PWs)   bands (ev):

   -21.2261  -9.1940  -7.6908  -6.5323   1.7432   2.4218   2.5574   3.5575

     occupation numbers 
     1.0000   1.0000   1.0000   1.0000   0.0000   0.0000   0.0000   0.0000

          k = 0.0000 0.2880 0.0000 (  3046 PWs)   bands (ev):

   -20.4155  -9.7907  -8.2435  -7.4134   2.8581   3.5428   3.6977   4.6320

     occupation numbers 
     1.0000   1.0000   1.0000   1.0000   0.0000   0.0000   0.0000   0.0000

          k = 0.0000 0.3840 0.0000 (  3042 PWs)   bands (ev):

   -19.2968 -11.9951  -8.1475  -6.9755   2.5651   4.4070   5.1472   5.2748

     occupation numbers 
     1.0000   1.0000   1.0000   1.0000   0.0000   0.0000   0.0000   0.0000

          k = 0.0000 0.4800 0.0000 (  3050 PWs)   bands (ev):

   -17.9012 -14.0961  -8.6211  -5.5534   0.4312   5.1224   6.4194   7.1606

     occupation numbers 
     1.0000   1.0000   1.0000   1.0000   0.0000   0.0000   0.0000   0.0000

          k =-0.0000-0.5760 0.0000 (  3052 PWs)   bands (ev):

   -16.6388 -15.6014  -8.7838  -4.7094  -0.6661   5.0431   8.7333   8.8758

     occupation numbers 
     1.0000   1.0000   1.0000   1.0000   0.0000   0.0000   0.0000   0.0000

          k = 0.0831 0.1440 0.0000 (  3051 PWs)   bands (ev):

   -21.3892  -9.3873  -7.0865  -6.4173   1.5200   2.1957   2.3294   3.3324

     occupation numbers 
     1.0000   1.0000   1.0000   1.0000   0.0000   0.0000   0.0000   0.0000

          k = 0.0831 0.2400 0.0000 (  3043 PWs)   bands (ev):

   -20.7388  -8.7977  -8.6193  -7.4162   2.4133   3.0990   3.2418   4.2311

     occupation numbers 
     1.0000   1.0000   1.0000   1.0000   0.0000   0.0000   0.0000   0.0000

          k = 0.0831 0.3360 0.0000 (  3028 PWs)   bands (ev):

   -19.7740 -10.8717  -8.3034  -7.5037   3.5753   3.7490   4.4710   4.6099

     occupation numbers 
     1.0000   1.0000   1.0000   1.0000   0.0000   0.0000   0.0000   0.0000

          k = 0.0831 0.4320 0.0000 (  3039 PWs)   bands (ev):

   -18.5137 -12.9957  -8.9390  -6.1245   1.3777   5.5021   5.9737   6.2545

     occupation numbers 
     1.0000   1.0000   1.0000   1.0000   0.0000   0.0000   0.0000   0.0000

          k = 0.0831 0.5280 0.0000 (  3037 PWs)   bands (ev):

   -17.0347 -14.9373  -9.2678  -4.8159  -0.3901   5.7819   7.7213   8.4544

     occupation numbers 
     1.0000   1.0000   1.0000   1.0000   0.0000   0.0000   0.0000   0.0000

          k = 0.1663 0.2880 0.0000 (  3031 PWs)   bands (ev):

   -19.9342 -10.1290  -8.7790  -7.6824   3.5283   4.0329   4.2235   4.3825

     occupation numbers 
     1.0000   1.0000   1.0000   1.0000   0.0000   0.0000   0.0000   0.0000

          k = 0.1663 0.3840 0.0000 (  3041 PWs)   bands (ev):

   -18.8264 -11.8573  -9.8363  -6.4297   2.0861   5.0805   5.7827   5.9785

     occupation numbers 
     1.0000   1.0000   1.0000   1.0000   0.0000   0.0000   0.0000   0.0000

          k = 0.1663 0.4800 0.0000 (  3039 PWs)   bands (ev):

   -17.4507 -13.7685 -10.4128  -5.0035   0.1745   7.0446   7.6935   7.7182

     occupation numbers 
     1.0000   1.0000   1.0000   1.0000   0.0000   0.0000   0.0000   0.0000

          k = 0.1663 0.5760 0.0000 (  3000 PWs)   bands (ev):

   -16.2174 -15.2025 -10.5977  -4.1111  -0.8931   7.5905   9.2440   9.3000

     occupation numbers 
     1.0000   1.0000   1.0000   1.0000   0.0000   0.0000   0.0000   0.0000

          k = 0.2494 0.4320 0.0000 (  3029 PWs)   bands (ev):

   -17.5983 -12.8936 -11.3197  -5.0874   0.4720   6.8339   7.4443   7.8007

     occupation numbers 
     1.0000   1.0000   1.0000   1.0000   0.0000   0.0000   0.0000   0.0000

          k = 0.2494 0.5280 0.0000 (  3011 PWs)   bands (ev):

   -16.1764 -14.3150 -12.0277  -3.7021  -1.0481   8.5220   8.9372   9.8525

     occupation numbers 
     1.0000   1.0000   1.0000   1.0000   0.0000   0.0000   0.0000   0.0000

          k = 0.3326 0.5760 0.0000 (  3009 PWs)   bands (ev):

   -14.9592 -14.9592 -12.9224  -2.3463  -2.3463   8.2702  10.5310  10.5310

     occupation numbers 
     1.0000   1.0000   1.0000   0.5000   0.5000   0.0000   0.0000   0.0000

     the Fermi energy is    -2.3461 ev

!    total energy              =     -36.88591027 Ry
     total all-electron energy =      -152.414106 Ry
     estimated scf accuracy    <          3.8E-14 Ry
     smearing contrib. (-TS)   =      -0.00000091 Ry
     internal energy E=F+TS    =     -36.88590936 Ry

     The total energy is F=E-TS. E is the sum of the following terms:
     one-electron contribution =    -223.81341603 Ry
     hartree contribution      =     113.34132478 Ry
     xc contribution           =      -9.27399363 Ry
     ewald contribution        =      95.19398338 Ry
     one-center paw contrib.   =     -12.33380785 Ry
      -> PAW hartree energy AE =       9.50238117 Ry
      -> PAW hartree energy PS =      -9.49374467 Ry
      -> PAW xc energy AE      =     -10.67683597 Ry
      -> PAW xc energy PS      =       4.50129554 Ry
      -> total E_H with PAW    =     113.34996129 Ry
      -> total E_XC with PAW   =     -15.44953407 Ry

     convergence has been achieved in  11 iterations

     negative rho (up, down):  1.263E-04 0.000E+00

     Forces acting on atoms (cartesian axes, Ry/au):

     atom    1 type  1   force =     0.00000000    0.00000000    0.00000000
     atom    2 type  1   force =    -0.00000000    0.00000000    0.00000000
     The non-local contrib.  to forces
     atom    1 type  1   force =     0.00000000   -0.00000000   -0.00000000
     atom    2 type  1   force =     0.00000000   -0.00000000    0.00000000
     The ionic contribution  to forces
     atom    1 type  1   force =    -0.00000001    0.00000000   -0.00000000
     atom    2 type  1   force =     0.00000001   -0.00000000   -0.00000000
     The local contribution  to forces
     atom    1 type  1   force =    -0.00000000   -0.00000000    0.00000000
     atom    2 type  1   force =     0.00000001   -0.00000000    0.00000000
     The core correction contribution to forces
     atom    1 type  1   force =    -0.00000000    0.00000000    0.00000000
     atom    2 type  1   force =    -0.00000000    0.00000000    0.00000000
     The Hubbard contrib.    to forces
     atom    1 type  1   force =     0.00000000    0.00000000    0.00000000
     atom    2 type  1   force =     0.00000000    0.00000000    0.00000000
     The SCF correction term to forces
     atom    1 type  1   force =     0.00000000   -0.00000000   -0.00000000
     atom    2 type  1   force =     0.00000000   -0.00000000   -0.00000000

     Total force =     0.000000     Total SCF correction =     0.000000


     Computing stress (Cartesian axis) and pressure


     negative rho (up, down):  1.263E-04 0.000E+00
          total   stress  (Ry/bohr**3)                   (kbar)     P=       -0.41
   0.00000060   0.00000000   0.00000000            0.09        0.00        0.00
   0.00000000   0.00000060   0.00000000            0.00        0.09        0.00
   0.00000000   0.00000000  -0.00000964            0.00        0.00       -1.42

     kinetic stress (kbar)   1938.75      0.00      0.00
                                0.00   1938.75      0.00
                                0.00      0.00   2200.58

     local   stress (kbar) -49014.99      0.00     -0.00
                                0.00 -49014.99     -0.00
                               -0.00     -0.00  48876.09

     nonloc. stress (kbar)    489.28      0.00      0.00
                                0.00    489.28      0.00
                               -0.00      0.00    446.43

     hartree stress (kbar)  23291.10      0.00      0.00
                                0.00  23291.10     -0.00
                                0.00     -0.00 -23118.86

     exc-cor stress (kbar)    -34.84     -0.00     -0.00
                               -0.00    -34.84      0.00
                               -0.00      0.00    -56.86

     corecor stress (kbar)   -467.26      0.00      0.00
                                0.00   -467.26     -0.00
                                0.00     -0.00   -459.24

     ewald   stress (kbar)  23798.06     -0.00     -0.00
                               -0.00  23798.06      0.00
                               -0.00      0.00 -27889.56

     hubbard stress (kbar)      0.00      0.00      0.00
                                0.00      0.00      0.00
                                0.00      0.00      0.00

     DFT-D   stress (kbar)      0.00      0.00      0.00
                                0.00      0.00      0.00
                                0.00      0.00      0.00

     XDM     stress (kbar)      0.00      0.00      0.00
                                0.00      0.00      0.00
                                0.00      0.00      0.00

     dft-nl  stress (kbar)      0.00      0.00      0.00
                                0.00      0.00      0.00
                                0.00      0.00      0.00

     TS-vdW  stress (kbar)      0.00      0.00      0.00
                                0.00      0.00      0.00
                                0.00      0.00      0.00

     MDB     stress (kbar)      0.00      0.00      0.00
                                0.00      0.00      0.00
                                0.00      0.00      0.00

     3D-RISM stress (kbar)      0.00      0.00      0.00
                                0.00      0.00      0.00
                                0.00      0.00      0.00


     Writing all to output data dir ./out/graphene.save/

     init_run     :     24.90s CPU     15.79s WALL (       2 calls)
     electrons    :    905.57s CPU    654.52s WALL (       5 calls)
     update_pot   :     38.15s CPU     29.59s WALL (       3 calls)
     forces       :     44.33s CPU     31.37s WALL (       5 calls)
     stress       :     91.76s CPU     65.84s WALL (       5 calls)

     Called by init_run:
     wfcinit      :      7.21s CPU      4.26s WALL (       2 calls)
     wfcinit:atom :      0.08s CPU      0.04s WALL (      38 calls)
     wfcinit:wfcr :      6.84s CPU      4.04s WALL (      38 calls)
     potinit      :      6.77s CPU      3.63s WALL (       2 calls)
     hinit0       :     10.17s CPU      7.23s WALL (       2 calls)

     Called by electrons:
     c_bands      :    745.45s CPU    539.34s WALL (      48 calls)
     sum_band     :    121.58s CPU     89.46s WALL (      48 calls)
     v_of_rho     :     16.41s CPU     10.68s WALL (      53 calls)
     v_h          :      1.21s CPU      0.82s WALL (      53 calls)
     v_xc         :     18.73s CPU     12.59s WALL (      63 calls)
     newd         :     11.29s CPU      7.45s WALL (      53 calls)
     PAW_pot      :     10.55s CPU      6.88s WALL (      56 calls)
     mix_rho      :      2.22s CPU      1.43s WALL (      48 calls)

     Called by c_bands:
     init_us_2    :      3.76s CPU      2.65s WALL (    2109 calls)
     init_us_2:cp :      3.72s CPU      2.63s WALL (    2109 calls)
     cegterg      :    735.39s CPU    531.54s WALL (     912 calls)

     Called by sum_band:
     sum_band:wei :      0.06s CPU      0.04s WALL (      48 calls)
     sum_band:loo :    107.77s CPU     78.49s WALL (      48 calls)
     sum_band:buf :      0.10s CPU      0.07s WALL (     912 calls)
     sum_band:ini :      1.51s CPU      1.09s WALL (     912 calls)
     sum_band:cal :     11.43s CPU      8.44s WALL (     969 calls)
     sum_band:bec :      5.89s CPU      5.06s WALL (     969 calls)
     addusdens    :     10.20s CPU      7.90s WALL (      48 calls)
                                        0.00s GPU  (      48 calls)
     addusd:skk   :      0.18s CPU      0.15s WALL (      48 calls)
                                        0.00s GPU  (      48 calls)

     Called by *egterg:
     cdiaghg      :      3.95s CPU      2.76s WALL (    4275 calls)
     cegterg:over :     46.12s CPU     30.65s WALL (    3420 calls)
     cegterg:upda :     29.17s CPU     23.14s WALL (    3420 calls)
     cegterg:last :      8.46s CPU      6.75s WALL (    2196 calls)
     h_psi        :    534.16s CPU    384.29s WALL (    4370 calls)
     s_psi        :     18.10s CPU     14.32s WALL (    4370 calls)
     g_psi        :     17.49s CPU     13.59s WALL (    3420 calls)

     Called by h_psi:
     h_psi:calbec :     51.86s CPU     36.76s WALL (    4370 calls)
     vloc_psi     :    461.10s CPU    331.10s WALL (    4370 calls)
     add_vuspsi   :      8.03s CPU      6.02s WALL (    4370 calls)

     General routines
     calbec       :     72.15s CPU     52.07s WALL (    5814 calls)
     fft          :     14.43s CPU     10.05s WALL (     807 calls)
     ffts         :      1.52s CPU      1.11s WALL (     101 calls)
     fftw         :    466.19s CPU    326.23s WALL (   50536 calls)
     interpolate  :      1.59s CPU      1.07s WALL (      53 calls)

     Parallel routines

     PAW routines
     PAW_pot      :     10.55s CPU      6.88s WALL (      56 calls)
     PAW_symme    :      0.25s CPU      0.19s WALL (     104 calls)

     PWSCF        :  18m28.28s CPU  13m20.69s WALL


   This run was terminated on:  21:23:47  14Nov2023            

=------------------------------------------------------------------------------=
   JOB DONE.
=------------------------------------------------------------------------------=
