
     Program PROJWFC v.7.2 starts on 21Nov2023 at 15:40:44 

     This program is part of the open-source Quantum ESPRESSO suite
     for quantum simulation of materials; please cite
         "P. Giannozzi et al., J. Phys.:Condens. Matter 21 395502 (2009);
         "P. Giannozzi et al., J. Phys.:Condens. Matter 29 465901 (2017);
         "P. Giannozzi et al., J. Chem. Phys. 152 154105 (2020);
          URL http://www.quantum-espresso.org", 
     in publications or presentations arising from this work. More details at
     http://www.quantum-espresso.org/quote

     Parallel version (MPI & OpenMP), running on       2 processor cores
     Number of MPI processes:                 2
     Threads/MPI process:                     1

     MPI processes distributed on     1 nodes
     R & G space division:  proc/nbgrp/npool/nimage =       2
     507339 MiB available memory on the printing compute node when the environment starts
 

     Reading xml data from directory:

     ../SCF/out/graphene.save/
     file C.pbe-n-kjpaw_psl.1.0.0.UPF: wavefunction(s)  2S 2P renormalized

     IMPORTANT: XC functional enforced from input :
     Exchange-correlation= PBE
                           (   1   4   3   4   0   0   0)
     Any further DFT definition will be discarded
     Please, verify this is what you really want

 
     Parallelization info
     --------------------
     sticks:   dense  smooth     PW     G-vecs:    dense   smooth      PW
     Min         297     150     45                48017    17042    3029
     Max         298     151     46                48026    17065    3036
     Sum         595     301     91                96043    34107    6065
 
     Using Slab Decomposition
 

     Check: negative core charge=   -0.000002

     negative rho (up, down):  1.273E-04 0.000E+00

     Gaussian broadening (read from input): ngauss,degauss=   0    0.001000


     Calling projwave .... 
     Subspace diagonalization in iterative solution of the eigenvalue problem:
     a serial algorithm will be used

 
  Problem Sizes 
  natomwfc =             8
  nbnd     =            16
  nkstot   =           151
  npwx     =          2157
  nkb      =            16
 

     Atomic states used for projection
     (read from pseudopotential files):

     state #   1: atom   1 (C  ), wfc  1 (l=0 m= 1)
     state #   2: atom   1 (C  ), wfc  2 (l=1 m= 1)
     state #   3: atom   1 (C  ), wfc  2 (l=1 m= 2)
     state #   4: atom   1 (C  ), wfc  2 (l=1 m= 3)
     state #   5: atom   2 (C  ), wfc  1 (l=0 m= 1)
     state #   6: atom   2 (C  ), wfc  2 (l=1 m= 1)
     state #   7: atom   2 (C  ), wfc  2 (l=1 m= 2)
     state #   8: atom   2 (C  ), wfc  2 (l=1 m= 3)

 k =  -0.3333333330  0.5773502698  0.0000000000
==== e(   1) =   -15.06556 eV ==== 
     psi = 0.234*[#   1]+0.234*[#   5]+0.131*[#   3]+0.131*[#   4]+0.131*[#   7]
          +0.131*[#   8]
    |psi|^2 = 0.993
==== e(   2) =   -15.06556 eV ==== 
     psi = 0.234*[#   1]+0.234*[#   5]+0.131*[#   3]+0.131*[#   4]+0.131*[#   7]
          +0.131*[#   8]
    |psi|^2 = 0.993
==== e(   3) =   -13.00199 eV ==== 
     psi = 0.245*[#   3]+0.245*[#   4]+0.245*[#   7]+0.245*[#   8]
    |psi|^2 = 0.980
==== e(   4) =    -2.44036 eV ==== 
     psi = 0.497*[#   2]+0.497*[#   6]
    |psi|^2 = 0.994
==== e(   5) =    -2.44036 eV ==== 
     psi = 0.497*[#   2]+0.497*[#   6]
    |psi|^2 = 0.994
==== e(   6) =     8.25924 eV ==== 
 
    |psi|^2 = 0.000
==== e(   7) =    10.44489 eV ==== 
     psi = 0.104*[#   1]+0.104*[#   5]+0.034*[#   3]+0.034*[#   4]+0.034*[#   7]
          +0.034*[#   8]
    |psi|^2 = 0.343
==== e(   8) =    10.44489 eV ==== 
     psi = 0.104*[#   1]+0.104*[#   5]+0.034*[#   3]+0.034*[#   4]+0.034*[#   7]
          +0.034*[#   8]
    |psi|^2 = 0.343
==== e(   9) =    11.08455 eV ==== 
     psi = 0.003*[#   3]+0.003*[#   4]+0.003*[#   7]+0.003*[#   8]
    |psi|^2 = 0.012
==== e(  10) =    12.35391 eV ==== 
 
    |psi|^2 = 0.000
==== e(  11) =    12.35391 eV ==== 
 
    |psi|^2 = 0.000
==== e(  12) =    12.46747 eV ==== 
     psi = 0.016*[#   1]+0.016*[#   5]+0.007*[#   3]+0.007*[#   4]+0.007*[#   7]
          +0.007*[#   8]
    |psi|^2 = 0.059
==== e(  13) =    12.46747 eV ==== 
     psi = 0.016*[#   1]+0.016*[#   5]+0.007*[#   3]+0.007*[#   4]+0.007*[#   7]
          +0.007*[#   8]
    |psi|^2 = 0.059
==== e(  14) =    12.53581 eV ==== 
 
    |psi|^2 = 0.001
==== e(  15) =    12.79494 eV ==== 
 
    |psi|^2 = 0.000
==== e(  16) =    13.10909 eV ==== 
     psi = 0.069*[#   1]+0.069*[#   5]+0.033*[#   3]+0.033*[#   4]+0.033*[#   7]
          +0.033*[#   8]
    |psi|^2 = 0.269

 k =  -0.3266666663  0.5658032644  0.0000000000
==== e(   1) =   -15.21498 eV ==== 
     psi = 0.238*[#   1]+0.238*[#   5]+0.130*[#   3]+0.130*[#   4]+0.130*[#   7]
          +0.130*[#   8]
    |psi|^2 = 0.993
==== e(   2) =   -14.92973 eV ==== 
     psi = 0.229*[#   1]+0.229*[#   5]+0.134*[#   3]+0.134*[#   4]+0.134*[#   7]
          +0.134*[#   8]
    |psi|^2 = 0.993
==== e(   3) =   -12.98206 eV ==== 
     psi = 0.244*[#   3]+0.244*[#   4]+0.244*[#   7]+0.244*[#   8]+0.001*[#   1]
          +0.001*[#   5]
    |psi|^2 = 0.980
==== e(   4) =    -2.62957 eV ==== 
     psi = 0.497*[#   2]+0.497*[#   6]
    |psi|^2 = 0.995
==== e(   5) =    -2.25223 eV ==== 
     psi = 0.497*[#   2]+0.497*[#   6]
    |psi|^2 = 0.994
==== e(   6) =     8.26571 eV ==== 
 
    |psi|^2 = 0.000
==== e(   7) =    10.34048 eV ==== 
     psi = 0.082*[#   1]+0.082*[#   5]+0.026*[#   3]+0.026*[#   4]+0.026*[#   7]
          +0.026*[#   8]
    |psi|^2 = 0.268
==== e(   8) =    10.49429 eV ==== 
     psi = 0.122*[#   1]+0.122*[#   5]+0.039*[#   3]+0.039*[#   4]+0.039*[#   7]
          +0.039*[#   8]
    |psi|^2 = 0.402
==== e(   9) =    11.07200 eV ==== 
     psi = 0.011*[#   1]+0.011*[#   5]+0.008*[#   3]+0.008*[#   4]+0.008*[#   7]
          +0.008*[#   8]
    |psi|^2 = 0.053
==== e(  10) =    12.04551 eV ==== 
 
    |psi|^2 = 0.000
==== e(  11) =    12.09056 eV ==== 
     psi = 0.004*[#   1]+0.004*[#   5]+0.002*[#   3]+0.002*[#   4]+0.002*[#   7]
          +0.002*[#   8]
    |psi|^2 = 0.017
==== e(  12) =    12.57444 eV ==== 
 
    |psi|^2 = 0.000
==== e(  13) =    12.66449 eV ==== 
     psi = 0.020*[#   1]+0.020*[#   5]+0.009*[#   3]+0.009*[#   4]+0.009*[#   7]
          +0.009*[#   8]
    |psi|^2 = 0.077
==== e(  14) =    12.70162 eV ==== 
     psi = 0.016*[#   1]+0.016*[#   5]+0.008*[#   3]+0.008*[#   4]+0.008*[#   7]
          +0.008*[#   8]
    |psi|^2 = 0.063
==== e(  15) =    12.83543 eV ==== 
 
    |psi|^2 = 0.000
==== e(  16) =    12.99394 eV ==== 
     psi = 0.047*[#   1]+0.047*[#   5]+0.022*[#   3]+0.022*[#   4]+0.022*[#   7]
          +0.022*[#   8]
    |psi|^2 = 0.184

 k =  -0.3199999997  0.5542562590  0.0000000000
==== e(   1) =   -15.39158 eV ==== 
     psi = 0.239*[#   1]+0.239*[#   5]+0.129*[#   3]+0.129*[#   4]+0.129*[#   7]
          +0.129*[#   8]
    |psi|^2 = 0.992
==== e(   2) =   -14.78874 eV ==== 
     psi = 0.223*[#   1]+0.223*[#   5]+0.137*[#   3]+0.137*[#   4]+0.137*[#   7]
          +0.137*[#   8]
    |psi|^2 = 0.993
==== e(   3) =   -12.92737 eV ==== 
     psi = 0.243*[#   3]+0.243*[#   4]+0.243*[#   7]+0.243*[#   8]+0.005*[#   1]
          +0.005*[#   5]
    |psi|^2 = 0.981
==== e(   4) =    -2.82713 eV ==== 
     psi = 0.497*[#   2]+0.497*[#   6]
    |psi|^2 = 0.995
==== e(   5) =    -2.05742 eV ==== 
     psi = 0.496*[#   2]+0.496*[#   6]
    |psi|^2 = 0.993
==== e(   6) =     8.28357 eV ==== 
 
    |psi|^2 = 0.000
==== e(   7) =    10.14730 eV ==== 
     psi = 0.057*[#   1]+0.057*[#   5]+0.017*[#   3]+0.017*[#   4]+0.017*[#   7]
          +0.017*[#   8]
    |psi|^2 = 0.183
==== e(   8) =    10.52734 eV ==== 
     psi = 0.141*[#   1]+0.141*[#   5]+0.045*[#   3]+0.045*[#   4]+0.045*[#   7]
          +0.045*[#   8]
    |psi|^2 = 0.462
==== e(   9) =    11.04473 eV ==== 
     psi = 0.035*[#   1]+0.035*[#   5]+0.018*[#   3]+0.018*[#   4]+0.018*[#   7]
          +0.018*[#   8]
    |psi|^2 = 0.144
==== e(  10) =    11.67682 eV ==== 
 
    |psi|^2 = 0.000
==== e(  11) =    11.68900 eV ==== 
     psi = 0.001*[#   1]+0.001*[#   5]
    |psi|^2 = 0.004
==== e(  12) =    12.68050 eV ==== 
 
    |psi|^2 = 0.000
==== e(  13) =    12.73261 eV ==== 
     psi = 0.037*[#   1]+0.037*[#   5]+0.017*[#   3]+0.017*[#   4]+0.017*[#   7]
          +0.017*[#   8]
    |psi|^2 = 0.142
==== e(  14) =    12.80348 eV ==== 
 
    |psi|^2 = 0.000
==== e(  15) =    12.86253 eV ==== 
     psi = 0.026*[#   1]+0.026*[#   5]+0.012*[#   3]+0.012*[#   4]+0.012*[#   7]
          +0.012*[#   8]
    |psi|^2 = 0.098
==== e(  16) =    12.96424 eV ==== 
 
    |psi|^2 = 0.003

 k =  -0.3133333330  0.5427092536  0.0000000000
==== e(   1) =   -15.58775 eV ==== 
     psi = 0.240*[#   1]+0.240*[#   5]+0.128*[#   3]+0.128*[#   4]+0.128*[#   7]
          +0.128*[#   8]
    |psi|^2 = 0.992
==== e(   2) =   -14.64262 eV ==== 
     psi = 0.218*[#   1]+0.218*[#   5]+0.139*[#   3]+0.139*[#   4]+0.139*[#   7]
          +0.139*[#   8]
    |psi|^2 = 0.993
==== e(   3) =   -12.84525 eV ==== 
     psi = 0.241*[#   3]+0.241*[#   4]+0.241*[#   7]+0.241*[#   8]+0.009*[#   1]
          +0.009*[#   5]
    |psi|^2 = 0.981
==== e(   4) =    -3.03209 eV ==== 
     psi = 0.498*[#   2]+0.498*[#   6]
    |psi|^2 = 0.995
==== e(   5) =    -1.85602 eV ==== 
     psi = 0.496*[#   2]+0.496*[#   6]
    |psi|^2 = 0.992
==== e(   6) =     8.30971 eV ==== 
 
    |psi|^2 = 0.000
==== e(   7) =     9.88934 eV ==== 
     psi = 0.038*[#   1]+0.038*[#   5]+0.011*[#   3]+0.011*[#   4]+0.011*[#   7]
          +0.011*[#   8]
    |psi|^2 = 0.118
==== e(   8) =    10.54359 eV ==== 
     psi = 0.160*[#   1]+0.160*[#   5]+0.051*[#   3]+0.051*[#   4]+0.051*[#   7]
          +0.051*[#   8]
    |psi|^2 = 0.522
==== e(   9) =    10.99672 eV ==== 
     psi = 0.059*[#   1]+0.059*[#   5]+0.029*[#   3]+0.029*[#   4]+0.029*[#   7]
          +0.029*[#   8]
    |psi|^2 = 0.234
==== e(  10) =    11.29634 eV ==== 
 
    |psi|^2 = 0.004
==== e(  11) =    11.30277 eV ==== 
 
    |psi|^2 = 0.000
==== e(  12) =    12.36097 eV ==== 
 
    |psi|^2 = 0.000
==== e(  13) =    12.47162 eV ==== 
     psi = 0.013*[#   1]+0.013*[#   5]+0.006*[#   3]+0.006*[#   4]+0.006*[#   7]
          +0.006*[#   8]
    |psi|^2 = 0.048
==== e(  14) =    13.04100 eV ==== 
 
    |psi|^2 = 0.000
==== e(  15) =    13.06089 eV ==== 
     psi = 0.031*[#   1]+0.031*[#   5]+0.014*[#   3]+0.014*[#   4]+0.014*[#   7]
          +0.014*[#   8]
    |psi|^2 = 0.117
==== e(  16) =    13.13695 eV ==== 
     psi = 0.014*[#   1]+0.014*[#   5]+0.008*[#   3]+0.008*[#   4]+0.008*[#   7]
          +0.008*[#   8]
    |psi|^2 = 0.059

 k =  -0.3066666664  0.5311622482  0.0000000000
==== e(   1) =   -15.79722 eV ==== 
     psi = 0.240*[#   1]+0.240*[#   5]+0.128*[#   3]+0.128*[#   4]+0.128*[#   7]
          +0.128*[#   8]
    |psi|^2 = 0.991
==== e(   2) =   -14.49142 eV ==== 
     psi = 0.213*[#   1]+0.213*[#   5]+0.142*[#   3]+0.142*[#   4]+0.142*[#   7]
          +0.142*[#   8]
    |psi|^2 = 0.994
==== e(   3) =   -12.74182 eV ==== 
     psi = 0.239*[#   3]+0.239*[#   4]+0.239*[#   7]+0.239*[#   8]+0.014*[#   1]
          +0.014*[#   5]
    |psi|^2 = 0.982
==== e(   4) =    -3.24345 eV ==== 
     psi = 0.498*[#   2]+0.498*[#   6]
    |psi|^2 = 0.995
==== e(   5) =    -1.64813 eV ==== 
     psi = 0.496*[#   2]+0.496*[#   6]
    |psi|^2 = 0.992
==== e(   6) =     8.33963 eV ==== 
 
    |psi|^2 = 0.001
==== e(   7) =     9.59226 eV ==== 
     psi = 0.025*[#   1]+0.025*[#   5]+0.007*[#   3]+0.007*[#   4]+0.007*[#   7]
          +0.007*[#   8]
    |psi|^2 = 0.076
==== e(   8) =    10.54351 eV ==== 
     psi = 0.178*[#   1]+0.178*[#   5]+0.056*[#   3]+0.056*[#   4]+0.056*[#   7]
          +0.056*[#   8]
    |psi|^2 = 0.579
==== e(   9) =    10.83342 eV ==== 
     psi = 0.029*[#   1]+0.029*[#   5]+0.013*[#   3]+0.013*[#   4]+0.013*[#   7]
          +0.013*[#   8]
    |psi|^2 = 0.109
==== e(  10) =    10.93557 eV ==== 
 
    |psi|^2 = 0.000
==== e(  11) =    11.00326 eV ==== 
     psi = 0.050*[#   1]+0.050*[#   5]+0.027*[#   3]+0.027*[#   4]+0.027*[#   7]
          +0.027*[#   8]
    |psi|^2 = 0.210
==== e(  12) =    12.01563 eV ==== 
 
    |psi|^2 = 0.000
==== e(  13) =    12.14337 eV ==== 
     psi = 0.003*[#   1]+0.003*[#   5]+0.001*[#   3]+0.001*[#   4]+0.001*[#   7]
          +0.001*[#   8]
    |psi|^2 = 0.013
==== e(  14) =    13.26044 eV ==== 
     psi = 0.034*[#   1]+0.034*[#   5]+0.016*[#   3]+0.016*[#   4]+0.016*[#   7]
          +0.016*[#   8]
    |psi|^2 = 0.130
==== e(  15) =    13.28696 eV ==== 
 
    |psi|^2 = 0.000
==== e(  16) =    13.32480 eV ==== 
     psi = 0.025*[#   1]+0.025*[#   5]+0.014*[#   3]+0.014*[#   4]+0.014*[#   7]
          +0.014*[#   8]
    |psi|^2 = 0.109

 k =  -0.2999999997  0.5196152428  0.0000000000
==== e(   1) =   -16.01520 eV ==== 
     psi = 0.241*[#   1]+0.241*[#   5]+0.127*[#   3]+0.127*[#   4]+0.127*[#   7]
          +0.127*[#   8]
    |psi|^2 = 0.990
==== e(   2) =   -14.33514 eV ==== 
     psi = 0.208*[#   1]+0.208*[#   5]+0.145*[#   3]+0.145*[#   4]+0.145*[#   7]
          +0.145*[#   8]
    |psi|^2 = 0.994
==== e(   3) =   -12.62168 eV ==== 
     psi = 0.237*[#   3]+0.237*[#   4]+0.237*[#   7]+0.237*[#   8]+0.018*[#   1]
          +0.018*[#   5]
    |psi|^2 = 0.983
==== e(   4) =    -3.46020 eV ==== 
     psi = 0.498*[#   2]+0.498*[#   6]
    |psi|^2 = 0.996
==== e(   5) =    -1.43387 eV ==== 
     psi = 0.495*[#   2]+0.495*[#   6]
    |psi|^2 = 0.991
==== e(   6) =     8.36679 eV ==== 
 
    |psi|^2 = 0.001
==== e(   7) =     9.27364 eV ==== 
     psi = 0.017*[#   1]+0.017*[#   5]+0.004*[#   3]+0.004*[#   4]+0.004*[#   7]
          +0.004*[#   8]
    |psi|^2 = 0.050
==== e(   8) =    10.47126 eV ==== 
     psi = 0.006*[#   1]+0.006*[#   5]+0.002*[#   3]+0.002*[#   4]+0.002*[#   7]
          +0.002*[#   8]
    |psi|^2 = 0.023
==== e(   9) =    10.52828 eV ==== 
     psi = 0.194*[#   1]+0.194*[#   5]+0.061*[#   3]+0.061*[#   4]+0.061*[#   7]
          +0.061*[#   8]
    |psi|^2 = 0.631
==== e(  10) =    10.58116 eV ==== 
 
    |psi|^2 = 0.000
==== e(  11) =    10.89004 eV ==== 
     psi = 0.087*[#   1]+0.087*[#   5]+0.047*[#   3]+0.047*[#   4]+0.047*[#   7]
          +0.047*[#   8]
    |psi|^2 = 0.364
==== e(  12) =    11.67361 eV ==== 
 
    |psi|^2 = 0.000
==== e(  13) =    11.79525 eV ==== 
 
    |psi|^2 = 0.003
==== e(  14) =    13.46356 eV ==== 
     psi = 0.035*[#   1]+0.035*[#   5]+0.016*[#   3]+0.016*[#   4]+0.016*[#   7]
          +0.016*[#   8]
    |psi|^2 = 0.135
==== e(  15) =    13.49249 eV ==== 
     psi = 0.035*[#   1]+0.035*[#   5]+0.020*[#   3]+0.020*[#   4]+0.020*[#   7]
          +0.020*[#   8]
    |psi|^2 = 0.149
==== e(  16) =    13.52740 eV ==== 
 
    |psi|^2 = 0.000

 k =  -0.2933333330  0.5080682374  0.0000000000
==== e(   1) =   -16.23823 eV ==== 
     psi = 0.242*[#   1]+0.242*[#   5]+0.126*[#   3]+0.126*[#   4]+0.126*[#   7]
          +0.126*[#   8]
    |psi|^2 = 0.989
==== e(   2) =   -14.17382 eV ==== 
     psi = 0.202*[#   1]+0.202*[#   5]+0.147*[#   3]+0.147*[#   4]+0.147*[#   7]
          +0.147*[#   8]
    |psi|^2 = 0.994
==== e(   3) =   -12.48819 eV ==== 
     psi = 0.235*[#   3]+0.235*[#   4]+0.235*[#   7]+0.235*[#   8]+0.021*[#   1]
          +0.021*[#   5]
    |psi|^2 = 0.984
==== e(   4) =    -3.68136 eV ==== 
     psi = 0.498*[#   2]+0.498*[#   6]
    |psi|^2 = 0.996
==== e(   5) =    -1.21336 eV ==== 
     psi = 0.495*[#   2]+0.495*[#   6]
    |psi|^2 = 0.990
==== e(   6) =     8.38159 eV ==== 
 
    |psi|^2 = 0.001
==== e(   7) =     8.94416 eV ==== 
     psi = 0.012*[#   1]+0.012*[#   5]+0.003*[#   3]+0.003*[#   4]+0.003*[#   7]
          +0.003*[#   8]
    |psi|^2 = 0.033
==== e(   8) =    10.09144 eV ==== 
     psi = 0.003*[#   1]+0.003*[#   5]+0.001*[#   3]+0.001*[#   4]+0.001*[#   7]
          +0.001*[#   8]
    |psi|^2 = 0.010
==== e(   9) =    10.24469 eV ==== 
 
    |psi|^2 = 0.000
==== e(  10) =    10.49954 eV ==== 
     psi = 0.210*[#   1]+0.210*[#   5]+0.065*[#   3]+0.065*[#   4]+0.065*[#   7]
          +0.065*[#   8]
    |psi|^2 = 0.678
==== e(  11) =    10.77449 eV ==== 
     psi = 0.101*[#   1]+0.101*[#   5]+0.056*[#   3]+0.056*[#   4]+0.056*[#   7]
          +0.056*[#   8]
    |psi|^2 = 0.427
==== e(  12) =    11.34569 eV ==== 
 
    |psi|^2 = 0.000
==== e(  13) =    11.44394 eV ==== 
     psi = 0.001*[#   3]+0.001*[#   4]+0.001*[#   7]+0.001*[#   8]
    |psi|^2 = 0.007
==== e(  14) =    13.27013 eV ==== 
 
    |psi|^2 = 0.000
==== e(  15) =    13.47837 eV ==== 
     psi = 0.020*[#   1]+0.020*[#   5]+0.010*[#   3]+0.010*[#   4]+0.010*[#   7]
          +0.010*[#   8]
    |psi|^2 = 0.081
==== e(  16) =    13.67303 eV ==== 
     psi = 0.033*[#   1]+0.033*[#   5]+0.016*[#   3]+0.016*[#   4]+0.016*[#   7]
          +0.016*[#   8]
    |psi|^2 = 0.132

 k =  -0.2866666664  0.4965212320  0.0000000000
==== e(   1) =   -16.46383 eV ==== 
     psi = 0.244*[#   1]+0.244*[#   5]+0.125*[#   3]+0.125*[#   4]+0.125*[#   7]
          +0.125*[#   8]
    |psi|^2 = 0.989
==== e(   2) =   -14.00752 eV ==== 
     psi = 0.197*[#   1]+0.197*[#   5]+0.150*[#   3]+0.150*[#   4]+0.150*[#   7]
          +0.150*[#   8]
    |psi|^2 = 0.994
==== e(   3) =   -12.34377 eV ==== 
     psi = 0.234*[#   3]+0.234*[#   4]+0.234*[#   7]+0.234*[#   8]+0.024*[#   1]
          +0.024*[#   5]
    |psi|^2 = 0.984
==== e(   4) =    -3.90598 eV ==== 
     psi = 0.498*[#   2]+0.498*[#   6]
    |psi|^2 = 0.996
==== e(   5) =    -0.98672 eV ==== 
     psi = 0.494*[#   2]+0.494*[#   6]
    |psi|^2 = 0.989
==== e(   6) =     8.37053 eV ==== 
 
    |psi|^2 = 0.001
==== e(   7) =     8.61025 eV ==== 
     psi = 0.008*[#   1]+0.008*[#   5]+0.002*[#   3]+0.002*[#   4]+0.002*[#   7]
          +0.002*[#   8]
    |psi|^2 = 0.023
==== e(   8) =     9.71606 eV ==== 
     psi = 0.002*[#   1]+0.002*[#   5]
    |psi|^2 = 0.006
==== e(   9) =     9.93165 eV ==== 
 
    |psi|^2 = 0.000
==== e(  10) =    10.45916 eV ==== 
     psi = 0.223*[#   1]+0.223*[#   5]+0.068*[#   3]+0.068*[#   4]+0.068*[#   7]
          +0.068*[#   8]
    |psi|^2 = 0.719
==== e(  11) =    10.63349 eV ==== 
     psi = 0.107*[#   1]+0.107*[#   5]+0.061*[#   3]+0.061*[#   4]+0.061*[#   7]
          +0.061*[#   8]
    |psi|^2 = 0.456
==== e(  12) =    11.04058 eV ==== 
 
    |psi|^2 = 0.000
==== e(  13) =    11.09973 eV ==== 
     psi = 0.005*[#   3]+0.005*[#   4]+0.005*[#   7]+0.005*[#   8]+0.005*[#   1]
          +0.005*[#   5]
    |psi|^2 = 0.030
==== e(  14) =    12.96687 eV ==== 
 
    |psi|^2 = 0.000
==== e(  15) =    13.21977 eV ==== 
     psi = 0.006*[#   1]+0.006*[#   5]+0.003*[#   3]+0.003*[#   4]+0.003*[#   7]
          +0.003*[#   8]
    |psi|^2 = 0.022
==== e(  16) =    13.89093 eV ==== 
     psi = 0.030*[#   1]+0.030*[#   5]+0.016*[#   3]+0.016*[#   4]+0.016*[#   7]
          +0.016*[#   8]
    |psi|^2 = 0.125

 k =  -0.2799999997  0.4849742266  0.0000000000
==== e(   1) =   -16.69014 eV ==== 
     psi = 0.246*[#   1]+0.246*[#   5]+0.124*[#   3]+0.124*[#   4]+0.124*[#   7]
          +0.124*[#   8]
    |psi|^2 = 0.988
==== e(   2) =   -13.83627 eV ==== 
     psi = 0.192*[#   1]+0.192*[#   5]+0.153*[#   3]+0.153*[#   4]+0.153*[#   7]
          +0.153*[#   8]
    |psi|^2 = 0.994
==== e(   3) =   -12.19017 eV ==== 
     psi = 0.233*[#   3]+0.233*[#   4]+0.233*[#   7]+0.233*[#   8]+0.027*[#   1]
          +0.027*[#   5]
    |psi|^2 = 0.985
==== e(   4) =    -4.13310 eV ==== 
     psi = 0.498*[#   2]+0.498*[#   6]
    |psi|^2 = 0.996
==== e(   5) =    -0.75412 eV ==== 
     psi = 0.494*[#   2]+0.494*[#   6]
    |psi|^2 = 0.988
==== e(   6) =     8.27590 eV ==== 
     psi = 0.006*[#   1]+0.006*[#   5]+0.001*[#   3]+0.001*[#   4]+0.001*[#   7]
          +0.001*[#   8]
    |psi|^2 = 0.017
==== e(   7) =     8.31678 eV ==== 
 
    |psi|^2 = 0.000
==== e(   8) =     9.34770 eV ==== 
     psi = 0.001*[#   1]+0.001*[#   5]
    |psi|^2 = 0.004
==== e(   9) =     9.64665 eV ==== 
 
    |psi|^2 = 0.000
==== e(  10) =    10.40900 eV ==== 
     psi = 0.235*[#   1]+0.235*[#   5]+0.071*[#   3]+0.071*[#   4]+0.071*[#   7]
          +0.071*[#   8]
    |psi|^2 = 0.754
==== e(  11) =    10.45754 eV ==== 
     psi = 0.098*[#   1]+0.098*[#   5]+0.056*[#   3]+0.056*[#   4]+0.056*[#   7]
          +0.056*[#   8]
    |psi|^2 = 0.421
==== e(  12) =    10.76844 eV ==== 
 
    |psi|^2 = 0.000
==== e(  13) =    10.77636 eV ==== 
     psi = 0.021*[#   1]+0.021*[#   5]+0.017*[#   3]+0.017*[#   4]+0.017*[#   7]
          +0.017*[#   8]
    |psi|^2 = 0.111
==== e(  14) =    12.66181 eV ==== 
 
    |psi|^2 = 0.000
==== e(  15) =    12.90778 eV ==== 
     psi = 0.002*[#   1]+0.002*[#   5]
    |psi|^2 = 0.008
==== e(  16) =    14.11831 eV ==== 
     psi = 0.027*[#   1]+0.027*[#   5]+0.015*[#   3]+0.015*[#   4]+0.015*[#   7]
          +0.015*[#   8]
    |psi|^2 = 0.115

 k =  -0.2733333331  0.4734272212  0.0000000000
==== e(   1) =   -16.91587 eV ==== 
     psi = 0.249*[#   1]+0.249*[#   5]+0.122*[#   3]+0.122*[#   4]+0.122*[#   7]
          +0.122*[#   8]
    |psi|^2 = 0.987
==== e(   2) =   -13.66015 eV ==== 
     psi = 0.186*[#   1]+0.186*[#   5]+0.155*[#   3]+0.155*[#   4]+0.155*[#   7]
          +0.155*[#   8]
    |psi|^2 = 0.994
==== e(   3) =   -12.02872 eV ==== 
     psi = 0.232*[#   3]+0.232*[#   4]+0.232*[#   7]+0.232*[#   8]+0.029*[#   1]
          +0.029*[#   5]
    |psi|^2 = 0.985
==== e(   4) =    -4.36192 eV ==== 
     psi = 0.498*[#   2]+0.498*[#   6]
    |psi|^2 = 0.996
==== e(   5) =    -0.51571 eV ==== 
     psi = 0.493*[#   2]+0.493*[#   6]
    |psi|^2 = 0.987
==== e(   6) =     7.94365 eV ==== 
     psi = 0.004*[#   1]+0.004*[#   5]
    |psi|^2 = 0.012
==== e(   7) =     8.20560 eV ==== 
 
    |psi|^2 = 0.000
==== e(   8) =     8.98715 eV ==== 
 
    |psi|^2 = 0.003
==== e(   9) =     9.38855 eV ==== 
 
    |psi|^2 = 0.000
==== e(  10) =    10.22638 eV ==== 
     psi = 0.064*[#   1]+0.064*[#   5]+0.035*[#   3]+0.035*[#   4]+0.035*[#   7]
          +0.035*[#   8]
    |psi|^2 = 0.269
==== e(  11) =    10.35078 eV ==== 
     psi = 0.245*[#   1]+0.245*[#   5]+0.074*[#   3]+0.074*[#   4]+0.074*[#   7]
          +0.074*[#   8]
    |psi|^2 = 0.785
==== e(  12) =    10.49888 eV ==== 
     psi = 0.060*[#   1]+0.060*[#   5]+0.045*[#   3]+0.045*[#   4]+0.045*[#   7]
          +0.045*[#   8]
    |psi|^2 = 0.300
==== e(  13) =    10.54066 eV ==== 
 
    |psi|^2 = 0.001
==== e(  14) =    12.36919 eV ==== 
 
    |psi|^2 = 0.000
==== e(  15) =    12.58409 eV ==== 
 
    |psi|^2 = 0.004
==== e(  16) =    14.35524 eV ==== 
     psi = 0.023*[#   1]+0.023*[#   5]+0.015*[#   3]+0.015*[#   4]+0.015*[#   7]
          +0.015*[#   8]
    |psi|^2 = 0.105

 k =  -0.2666666664  0.4618802158  0.0000000000
==== e(   1) =   -17.13998 eV ==== 
     psi = 0.252*[#   1]+0.252*[#   5]+0.121*[#   3]+0.121*[#   4]+0.121*[#   7]
          +0.121*[#   8]
    |psi|^2 = 0.986
==== e(   2) =   -13.47920 eV ==== 
     psi = 0.181*[#   1]+0.181*[#   5]+0.158*[#   3]+0.158*[#   4]+0.158*[#   7]
          +0.158*[#   8]
    |psi|^2 = 0.994
==== e(   3) =   -11.86043 eV ==== 
     psi = 0.231*[#   3]+0.231*[#   4]+0.231*[#   7]+0.231*[#   8]+0.031*[#   1]
          +0.031*[#   5]
    |psi|^2 = 0.986
==== e(   4) =    -4.59158 eV ==== 
     psi = 0.498*[#   2]+0.498*[#   6]
    |psi|^2 = 0.996
==== e(   5) =    -0.27166 eV ==== 
     psi = 0.493*[#   2]+0.493*[#   6]
    |psi|^2 = 0.986
==== e(   6) =     7.61520 eV ==== 
     psi = 0.003*[#   1]+0.003*[#   5]
    |psi|^2 = 0.010
==== e(   7) =     8.03390 eV ==== 
 
    |psi|^2 = 0.000
==== e(   8) =     8.63474 eV ==== 
 
    |psi|^2 = 0.002
==== e(   9) =     9.14567 eV ==== 
 
    |psi|^2 = 0.000
==== e(  10) =     9.93756 eV ==== 
     psi = 0.031*[#   1]+0.031*[#   5]+0.016*[#   3]+0.016*[#   4]+0.016*[#   7]
          +0.016*[#   8]
    |psi|^2 = 0.125
==== e(  11) =    10.27396 eV ==== 
     psi = 0.097*[#   1]+0.097*[#   5]+0.070*[#   3]+0.070*[#   4]+0.070*[#   7]
          +0.070*[#   8]
    |psi|^2 = 0.475
==== e(  12) =    10.28599 eV ==== 
     psi = 0.254*[#   1]+0.254*[#   5]+0.076*[#   3]+0.076*[#   4]+0.076*[#   7]
          +0.076*[#   8]
    |psi|^2 = 0.811
==== e(  13) =    10.36454 eV ==== 
 
    |psi|^2 = 0.001
==== e(  14) =    12.09908 eV ==== 
 
    |psi|^2 = 0.000
==== e(  15) =    12.25887 eV ==== 
 
    |psi|^2 = 0.003
==== e(  16) =    14.60107 eV ==== 
     psi = 0.019*[#   1]+0.019*[#   5]+0.014*[#   3]+0.014*[#   4]+0.014*[#   7]
          +0.014*[#   8]
    |psi|^2 = 0.096

 k =  -0.2599999997  0.4503332104  0.0000000000
==== e(   1) =   -17.36173 eV ==== 
     psi = 0.255*[#   1]+0.255*[#   5]+0.119*[#   3]+0.119*[#   4]+0.119*[#   7]
          +0.119*[#   8]
    |psi|^2 = 0.986
==== e(   2) =   -13.29345 eV ==== 
     psi = 0.176*[#   1]+0.176*[#   5]+0.161*[#   3]+0.161*[#   4]+0.161*[#   7]
          +0.161*[#   8]
    |psi|^2 = 0.994
==== e(   3) =   -11.68610 eV ==== 
     psi = 0.230*[#   3]+0.230*[#   4]+0.230*[#   7]+0.230*[#   8]+0.032*[#   1]
          +0.032*[#   5]
    |psi|^2 = 0.986
==== e(   4) =    -4.82135 eV ==== 
     psi = 0.498*[#   2]+0.498*[#   6]
    |psi|^2 = 0.996
==== e(   5) =    -0.02213 eV ==== 
     psi = 0.492*[#   2]+0.492*[#   6]
    |psi|^2 = 0.985
==== e(   6) =     7.29172 eV ==== 
     psi = 0.002*[#   1]+0.002*[#   5]+0.001*[#   3]+0.001*[#   4]+0.001*[#   7]
          +0.001*[#   8]
    |psi|^2 = 0.009
==== e(   7) =     7.81309 eV ==== 
 
    |psi|^2 = 0.000
==== e(   8) =     8.29066 eV ==== 
 
    |psi|^2 = 0.001
==== e(   9) =     8.90141 eV ==== 
 
    |psi|^2 = 0.000
==== e(  10) =     9.62373 eV ==== 
     psi = 0.016*[#   1]+0.016*[#   5]+0.007*[#   3]+0.007*[#   4]+0.007*[#   7]
          +0.007*[#   8]
    |psi|^2 = 0.062
==== e(  11) =    10.07253 eV ==== 
     psi = 0.115*[#   1]+0.115*[#   5]+0.084*[#   3]+0.084*[#   4]+0.084*[#   7]
          +0.084*[#   8]
    |psi|^2 = 0.566
==== e(  12) =    10.21593 eV ==== 
     psi = 0.261*[#   1]+0.261*[#   5]+0.078*[#   3]+0.078*[#   4]+0.078*[#   7]
          +0.078*[#   8]
    |psi|^2 = 0.833
==== e(  13) =    10.23387 eV ==== 
 
    |psi|^2 = 0.001
==== e(  14) =    11.86279 eV ==== 
 
    |psi|^2 = 0.001
==== e(  15) =    11.93621 eV ==== 
 
    |psi|^2 = 0.003
==== e(  16) =    14.49375 eV ==== 
 
    |psi|^2 = 0.000

 k =  -0.2533333331  0.4387862050  0.0000000000
==== e(   1) =   -17.58046 eV ==== 
     psi = 0.258*[#   1]+0.258*[#   5]+0.117*[#   3]+0.117*[#   4]+0.117*[#   7]
          +0.117*[#   8]
    |psi|^2 = 0.985
==== e(   2) =   -13.10301 eV ==== 
     psi = 0.170*[#   1]+0.170*[#   5]+0.163*[#   3]+0.163*[#   4]+0.163*[#   7]
          +0.163*[#   8]
    |psi|^2 = 0.994
==== e(   3) =   -11.50638 eV ==== 
     psi = 0.230*[#   3]+0.230*[#   4]+0.230*[#   7]+0.230*[#   8]+0.033*[#   1]
          +0.033*[#   5]
    |psi|^2 = 0.987
==== e(   4) =    -5.05051 eV ==== 
     psi = 0.498*[#   2]+0.498*[#   6]
    |psi|^2 = 0.996
==== e(   5) =     0.23267 eV ==== 
     psi = 0.492*[#   2]+0.492*[#   6]
    |psi|^2 = 0.984
==== e(   6) =     6.97402 eV ==== 
     psi = 0.002*[#   1]+0.002*[#   5]+0.001*[#   3]+0.001*[#   4]+0.001*[#   7]
          +0.001*[#   8]
    |psi|^2 = 0.008
==== e(   7) =     7.56035 eV ==== 
 
    |psi|^2 = 0.000
==== e(   8) =     7.95502 eV ==== 
 
    |psi|^2 = 0.001
==== e(   9) =     8.64637 eV ==== 
 
    |psi|^2 = 0.000
==== e(  10) =     9.30557 eV ==== 
     psi = 0.010*[#   1]+0.010*[#   5]+0.004*[#   3]+0.004*[#   4]+0.004*[#   7]
          +0.004*[#   8]
    |psi|^2 = 0.035
==== e(  11) =     9.87683 eV ==== 
     psi = 0.124*[#   1]+0.124*[#   5]+0.093*[#   3]+0.093*[#   4]+0.093*[#   7]
          +0.093*[#   8]
    |psi|^2 = 0.618
==== e(  12) =    10.12546 eV ==== 
 
    |psi|^2 = 0.000
==== e(  13) =    10.14168 eV ==== 
     psi = 0.267*[#   1]+0.267*[#   5]+0.079*[#   3]+0.079*[#   4]+0.079*[#   7]
          +0.079*[#   8]
    |psi|^2 = 0.852
==== e(  14) =    11.61818 eV ==== 
 
    |psi|^2 = 0.004
==== e(  15) =    11.67394 eV ==== 
 
    |psi|^2 = 0.001
==== e(  16) =    14.23808 eV ==== 
 
    |psi|^2 = 0.000

 k =  -0.2466666664  0.4272391996  0.0000000000
==== e(   1) =   -17.79575 eV ==== 
     psi = 0.262*[#   1]+0.262*[#   5]+0.115*[#   3]+0.115*[#   4]+0.115*[#   7]
          +0.115*[#   8]
    |psi|^2 = 0.984
==== e(   2) =   -12.90794 eV ==== 
     psi = 0.166*[#   3]+0.166*[#   4]+0.166*[#   7]+0.166*[#   8]+0.165*[#   1]
          +0.165*[#   5]
    |psi|^2 = 0.994
==== e(   3) =   -11.32185 eV ==== 
     psi = 0.230*[#   3]+0.230*[#   4]+0.230*[#   7]+0.230*[#   8]+0.034*[#   1]
          +0.034*[#   5]
    |psi|^2 = 0.987
==== e(   4) =    -5.27843 eV ==== 
     psi = 0.498*[#   2]+0.498*[#   6]
    |psi|^2 = 0.996
==== e(   5) =     0.49252 eV ==== 
     psi = 0.491*[#   2]+0.491*[#   6]
    |psi|^2 = 0.982
==== e(   6) =     6.66271 eV ==== 
     psi = 0.002*[#   3]+0.002*[#   4]+0.002*[#   7]+0.002*[#   8]+0.001*[#   1]
          +0.001*[#   5]
    |psi|^2 = 0.008
==== e(   7) =     7.29010 eV ==== 
 
    |psi|^2 = 0.000
==== e(   8) =     7.62789 eV ==== 
 
    |psi|^2 = 0.001
==== e(   9) =     8.38055 eV ==== 
 
    |psi|^2 = 0.000
==== e(  10) =     8.99033 eV ==== 
     psi = 0.006*[#   1]+0.006*[#   5]+0.002*[#   3]+0.002*[#   4]+0.002*[#   7]
          +0.002*[#   8]
    |psi|^2 = 0.022
==== e(  11) =     9.68208 eV ==== 
     psi = 0.128*[#   1]+0.128*[#   5]+0.099*[#   3]+0.099*[#   4]+0.099*[#   7]
          +0.099*[#   8]
    |psi|^2 = 0.652
==== e(  12) =    10.00900 eV ==== 
 
    |psi|^2 = 0.000
==== e(  13) =    10.06411 eV ==== 
     psi = 0.272*[#   1]+0.272*[#   5]+0.081*[#   3]+0.081*[#   4]+0.081*[#   7]
          +0.081*[#   8]
    |psi|^2 = 0.868
==== e(  14) =    11.30599 eV ==== 
     psi = 0.001*[#   3]+0.001*[#   4]+0.001*[#   7]+0.001*[#   8]
    |psi|^2 = 0.005
==== e(  15) =    11.54491 eV ==== 
 
    |psi|^2 = 0.001
==== e(  16) =    13.98721 eV ==== 
 
    |psi|^2 = 0.000

 k =  -0.2399999998  0.4156921942  0.0000000000
==== e(   1) =   -18.00718 eV ==== 
     psi = 0.266*[#   1]+0.266*[#   5]+0.113*[#   3]+0.113*[#   4]+0.113*[#   7]
          +0.113*[#   8]
    |psi|^2 = 0.984
==== e(   2) =   -12.70836 eV ==== 
     psi = 0.169*[#   3]+0.169*[#   4]+0.169*[#   7]+0.169*[#   8]+0.160*[#   1]
          +0.160*[#   5]
    |psi|^2 = 0.995
==== e(   3) =   -11.13303 eV ==== 
     psi = 0.230*[#   3]+0.230*[#   4]+0.230*[#   7]+0.230*[#   8]+0.035*[#   1]
          +0.035*[#   5]
    |psi|^2 = 0.987
==== e(   4) =    -5.50452 eV ==== 
     psi = 0.498*[#   2]+0.498*[#   6]
    |psi|^2 = 0.996
==== e(   5) =     0.75719 eV ==== 
     psi = 0.491*[#   2]+0.491*[#   6]
    |psi|^2 = 0.981
==== e(   6) =     6.35822 eV ==== 
     psi = 0.002*[#   3]+0.002*[#   4]+0.002*[#   7]+0.002*[#   8]
    |psi|^2 = 0.009
==== e(   7) =     7.01190 eV ==== 
 
    |psi|^2 = 0.000
==== e(   8) =     7.30933 eV ==== 
 
    |psi|^2 = 0.001
==== e(   9) =     8.10804 eV ==== 
 
    |psi|^2 = 0.000
==== e(  10) =     8.68069 eV ==== 
     psi = 0.004*[#   1]+0.004*[#   5]+0.001*[#   3]+0.001*[#   4]+0.001*[#   7]
          +0.001*[#   8]
    |psi|^2 = 0.015
==== e(  11) =     9.48751 eV ==== 
     psi = 0.131*[#   1]+0.131*[#   5]+0.104*[#   3]+0.104*[#   4]+0.104*[#   7]
          +0.104*[#   8]
    |psi|^2 = 0.678
==== e(  12) =     9.86286 eV ==== 
 
    |psi|^2 = 0.000
==== e(  13) =     9.98390 eV ==== 
     psi = 0.276*[#   1]+0.276*[#   5]+0.083*[#   3]+0.083*[#   4]+0.083*[#   7]
          +0.083*[#   8]
    |psi|^2 = 0.882
==== e(  14) =    11.00041 eV ==== 
     psi = 0.002*[#   3]+0.002*[#   4]+0.002*[#   7]+0.002*[#   8]
    |psi|^2 = 0.007
==== e(  15) =    11.47797 eV ==== 
 
    |psi|^2 = 0.001
==== e(  16) =    13.75334 eV ==== 
 
    |psi|^2 = 0.001

 k =  -0.2333333331  0.4041451888  0.0000000000
==== e(   1) =   -18.21444 eV ==== 
     psi = 0.270*[#   1]+0.270*[#   5]+0.111*[#   3]+0.111*[#   4]+0.111*[#   7]
          +0.111*[#   8]
    |psi|^2 = 0.983
==== e(   2) =   -12.50432 eV ==== 
     psi = 0.171*[#   3]+0.171*[#   4]+0.171*[#   7]+0.171*[#   8]+0.155*[#   1]
          +0.155*[#   5]
    |psi|^2 = 0.995
==== e(   3) =   -10.94033 eV ==== 
     psi = 0.230*[#   3]+0.230*[#   4]+0.230*[#   7]+0.230*[#   8]+0.035*[#   1]
          +0.035*[#   5]
    |psi|^2 = 0.988
==== e(   4) =    -5.72822 eV ==== 
     psi = 0.498*[#   2]+0.498*[#   6]
    |psi|^2 = 0.996
==== e(   5) =     1.02643 eV ==== 
     psi = 0.490*[#   2]+0.490*[#   6]
    |psi|^2 = 0.980
==== e(   6) =     6.06089 eV ==== 
     psi = 0.002*[#   3]+0.002*[#   4]+0.002*[#   7]+0.002*[#   8]
    |psi|^2 = 0.010
==== e(   7) =     6.73162 eV ==== 
 
    |psi|^2 = 0.001
==== e(   8) =     6.99937 eV ==== 
 
    |psi|^2 = 0.001
==== e(   9) =     7.83307 eV ==== 
 
    |psi|^2 = 0.000
==== e(  10) =     8.37786 eV ==== 
     psi = 0.003*[#   1]+0.003*[#   5]
    |psi|^2 = 0.010
==== e(  11) =     9.29358 eV ==== 
     psi = 0.133*[#   1]+0.133*[#   5]+0.109*[#   3]+0.109*[#   4]+0.109*[#   7]
          +0.109*[#   8]
    |psi|^2 = 0.699
==== e(  12) =     9.68237 eV ==== 
 
    |psi|^2 = 0.000
==== e(  13) =     9.90164 eV ==== 
     psi = 0.278*[#   1]+0.278*[#   5]+0.084*[#   3]+0.084*[#   4]+0.084*[#   7]
          +0.084*[#   8]
    |psi|^2 = 0.894
==== e(  14) =    10.70197 eV ==== 
     psi = 0.002*[#   3]+0.002*[#   4]+0.002*[#   7]+0.002*[#   8]
    |psi|^2 = 0.009
==== e(  15) =    11.45894 eV ==== 
 
    |psi|^2 = 0.001
==== e(  16) =    13.54731 eV ==== 
 
    |psi|^2 = 0.001

 k =  -0.2266666664  0.3925981834  0.0000000000
==== e(   1) =   -18.41724 eV ==== 
     psi = 0.275*[#   1]+0.275*[#   5]+0.108*[#   3]+0.108*[#   4]+0.108*[#   7]
          +0.108*[#   8]
    |psi|^2 = 0.983
==== e(   2) =   -12.29595 eV ==== 
     psi = 0.174*[#   3]+0.174*[#   4]+0.174*[#   7]+0.174*[#   8]+0.149*[#   1]
          +0.149*[#   5]
    |psi|^2 = 0.995
==== e(   3) =   -10.74420 eV ==== 
     psi = 0.230*[#   3]+0.230*[#   4]+0.230*[#   7]+0.230*[#   8]+0.035*[#   1]
          +0.035*[#   5]
    |psi|^2 = 0.988
==== e(   4) =    -5.94906 eV ==== 
     psi = 0.498*[#   2]+0.498*[#   6]
    |psi|^2 = 0.995
==== e(   5) =     1.29996 eV ==== 
     psi = 0.489*[#   2]+0.489*[#   6]
    |psi|^2 = 0.979
==== e(   6) =     5.77097 eV ==== 
     psi = 0.003*[#   3]+0.003*[#   4]+0.003*[#   7]+0.003*[#   8]
    |psi|^2 = 0.011
==== e(   7) =     6.45284 eV ==== 
 
    |psi|^2 = 0.001
==== e(   8) =     6.69805 eV ==== 
 
    |psi|^2 = 0.001
==== e(   9) =     7.55887 eV ==== 
 
    |psi|^2 = 0.000
==== e(  10) =     8.08247 eV ==== 
     psi = 0.002*[#   1]+0.002*[#   5]
    |psi|^2 = 0.007
==== e(  11) =     9.10099 eV ==== 
     psi = 0.133*[#   1]+0.133*[#   5]+0.113*[#   3]+0.113*[#   4]+0.113*[#   7]
          +0.113*[#   8]
    |psi|^2 = 0.717
==== e(  12) =     9.47476 eV ==== 
 
    |psi|^2 = 0.000
==== e(  13) =     9.81774 eV ==== 
     psi = 0.280*[#   1]+0.280*[#   5]+0.086*[#   3]+0.086*[#   4]+0.086*[#   7]
          +0.086*[#   8]
    |psi|^2 = 0.904
==== e(  14) =    10.41101 eV ==== 
     psi = 0.003*[#   3]+0.003*[#   4]+0.003*[#   7]+0.003*[#   8]
    |psi|^2 = 0.012
==== e(  15) =    11.46112 eV ==== 
 
    |psi|^2 = 0.001
==== e(  16) =    13.38191 eV ==== 
 
    |psi|^2 = 0.001

 k =  -0.2199999998  0.3810511780  0.0000000000
==== e(   1) =   -18.61540 eV ==== 
     psi = 0.279*[#   1]+0.279*[#   5]+0.106*[#   3]+0.106*[#   4]+0.106*[#   7]
          +0.106*[#   8]
    |psi|^2 = 0.983
==== e(   2) =   -12.08337 eV ==== 
     psi = 0.177*[#   3]+0.177*[#   4]+0.177*[#   7]+0.177*[#   8]+0.144*[#   1]
          +0.144*[#   5]
    |psi|^2 = 0.995
==== e(   3) =   -10.54505 eV ==== 
     psi = 0.230*[#   3]+0.230*[#   4]+0.230*[#   7]+0.230*[#   8]+0.035*[#   1]
          +0.035*[#   5]
    |psi|^2 = 0.988
==== e(   4) =    -6.16660 eV ==== 
     psi = 0.497*[#   2]+0.497*[#   6]
    |psi|^2 = 0.994
==== e(   5) =     1.57748 eV ==== 
     psi = 0.489*[#   2]+0.489*[#   6]
    |psi|^2 = 0.978
==== e(   6) =     5.48868 eV ==== 
     psi = 0.003*[#   3]+0.003*[#   4]+0.003*[#   7]+0.003*[#   8]
    |psi|^2 = 0.013
==== e(   7) =     6.17777 eV ==== 
 
    |psi|^2 = 0.001
==== e(   8) =     6.40538 eV ==== 
 
    |psi|^2 = 0.001
==== e(   9) =     7.28768 eV ==== 
 
    |psi|^2 = 0.001
==== e(  10) =     7.79489 eV ==== 
     psi = 0.002*[#   1]+0.002*[#   5]
    |psi|^2 = 0.006
==== e(  11) =     8.91047 eV ==== 
     psi = 0.133*[#   1]+0.133*[#   5]+0.116*[#   3]+0.116*[#   4]+0.116*[#   7]
          +0.116*[#   8]
    |psi|^2 = 0.731
==== e(  12) =     9.25005 eV ==== 
 
    |psi|^2 = 0.000
==== e(  13) =     9.73251 eV ==== 
     psi = 0.281*[#   1]+0.281*[#   5]+0.088*[#   3]+0.088*[#   4]+0.088*[#   7]
          +0.088*[#   8]
    |psi|^2 = 0.912
==== e(  14) =    10.12782 eV ==== 
     psi = 0.003*[#   3]+0.003*[#   4]+0.003*[#   7]+0.003*[#   8]
    |psi|^2 = 0.015
==== e(  15) =    11.45437 eV ==== 
 
    |psi|^2 = 0.000
==== e(  16) =    13.18665 eV ==== 
 
    |psi|^2 = 0.002

 k =  -0.2133333331  0.3695041727  0.0000000000
==== e(   1) =   -18.80871 eV ==== 
     psi = 0.284*[#   1]+0.284*[#   5]+0.103*[#   3]+0.103*[#   4]+0.103*[#   7]
          +0.103*[#   8]
    |psi|^2 = 0.982
==== e(   2) =   -11.86669 eV ==== 
     psi = 0.179*[#   3]+0.179*[#   4]+0.179*[#   7]+0.179*[#   8]+0.139*[#   1]
          +0.139*[#   5]
    |psi|^2 = 0.995
==== e(   3) =   -10.34325 eV ==== 
     psi = 0.230*[#   3]+0.230*[#   4]+0.230*[#   7]+0.230*[#   8]+0.034*[#   1]
          +0.034*[#   5]
    |psi|^2 = 0.988
==== e(   4) =    -6.38040 eV ==== 
     psi = 0.497*[#   2]+0.497*[#   6]
    |psi|^2 = 0.994
==== e(   5) =     1.85869 eV ==== 
     psi = 0.488*[#   2]+0.488*[#   6]
    |psi|^2 = 0.977
==== e(   6) =     5.21417 eV ==== 
     psi = 0.004*[#   3]+0.004*[#   4]+0.004*[#   7]+0.004*[#   8]
    |psi|^2 = 0.015
==== e(   7) =     5.90783 eV ==== 
 
    |psi|^2 = 0.002
==== e(   8) =     6.12139 eV ==== 
 
    |psi|^2 = 0.001
==== e(   9) =     7.02104 eV ==== 
 
    |psi|^2 = 0.001
==== e(  10) =     7.51534 eV ==== 
     psi = 0.001*[#   1]+0.001*[#   5]
    |psi|^2 = 0.004
==== e(  11) =     8.72275 eV ==== 
     psi = 0.133*[#   1]+0.133*[#   5]+0.120*[#   3]+0.120*[#   4]+0.120*[#   7]
          +0.120*[#   8]
    |psi|^2 = 0.743
==== e(  12) =     9.01638 eV ==== 
 
    |psi|^2 = 0.000
==== e(  13) =     9.64620 eV ==== 
     psi = 0.281*[#   1]+0.281*[#   5]+0.090*[#   3]+0.090*[#   4]+0.090*[#   7]
          +0.090*[#   8]
    |psi|^2 = 0.920
==== e(  14) =     9.85261 eV ==== 
     psi = 0.004*[#   3]+0.004*[#   4]+0.004*[#   7]+0.004*[#   8]+0.001*[#   1]
          +0.001*[#   5]
    |psi|^2 = 0.018
==== e(  15) =    11.41403 eV ==== 
 
    |psi|^2 = 0.000
==== e(  16) =    12.91780 eV ==== 
 
    |psi|^2 = 0.002

 k =  -0.2066666665  0.3579571673  0.0000000000
==== e(   1) =   -18.99701 eV ==== 
     psi = 0.289*[#   1]+0.289*[#   5]+0.101*[#   3]+0.101*[#   4]+0.101*[#   7]
          +0.101*[#   8]
    |psi|^2 = 0.982
==== e(   2) =   -11.64607 eV ==== 
     psi = 0.182*[#   3]+0.182*[#   4]+0.182*[#   7]+0.182*[#   8]+0.134*[#   1]
          +0.134*[#   5]
    |psi|^2 = 0.995
==== e(   3) =   -10.13923 eV ==== 
     psi = 0.230*[#   3]+0.230*[#   4]+0.230*[#   7]+0.230*[#   8]+0.034*[#   1]
          +0.034*[#   5]
    |psi|^2 = 0.989
==== e(   4) =    -6.59012 eV ==== 
     psi = 0.496*[#   2]+0.496*[#   6]
    |psi|^2 = 0.993
==== e(   5) =     2.14321 eV ==== 
     psi = 0.488*[#   2]+0.488*[#   6]
    |psi|^2 = 0.975
==== e(   6) =     4.94756 eV ==== 
     psi = 0.004*[#   3]+0.004*[#   4]+0.004*[#   7]+0.004*[#   8]
    |psi|^2 = 0.017
==== e(   7) =     5.64398 eV ==== 
 
    |psi|^2 = 0.002
==== e(   8) =     5.84608 eV ==== 
 
    |psi|^2 = 0.001
==== e(   9) =     6.76001 eV ==== 
 
    |psi|^2 = 0.001
==== e(  10) =     7.24398 eV ==== 
     psi = 0.001*[#   1]+0.001*[#   5]
    |psi|^2 = 0.004
==== e(  11) =     8.53842 eV ==== 
     psi = 0.132*[#   1]+0.132*[#   5]+0.122*[#   3]+0.122*[#   4]+0.122*[#   7]
          +0.122*[#   8]
    |psi|^2 = 0.753
==== e(  12) =     8.77935 eV ==== 
 
    |psi|^2 = 0.001
==== e(  13) =     9.55891 eV ==== 
     psi = 0.280*[#   1]+0.280*[#   5]+0.092*[#   3]+0.092*[#   4]+0.092*[#   7]
          +0.092*[#   8]
    |psi|^2 = 0.926
==== e(  14) =     9.58552 eV ==== 
     psi = 0.005*[#   3]+0.005*[#   4]+0.005*[#   7]+0.005*[#   8]+0.001*[#   1]
          +0.001*[#   5]
    |psi|^2 = 0.022
==== e(  15) =    11.32895 eV ==== 
 
    |psi|^2 = 0.000
==== e(  16) =    12.65581 eV ==== 
 
    |psi|^2 = 0.003

 k =  -0.1999999998  0.3464101619  0.0000000000
==== e(   1) =   -19.18012 eV ==== 
     psi = 0.295*[#   1]+0.295*[#   5]+0.098*[#   3]+0.098*[#   4]+0.098*[#   7]
          +0.098*[#   8]
    |psi|^2 = 0.981
==== e(   2) =   -11.42167 eV ==== 
     psi = 0.185*[#   3]+0.185*[#   4]+0.185*[#   7]+0.185*[#   8]+0.129*[#   1]
          +0.129*[#   5]
    |psi|^2 = 0.995
==== e(   3) =    -9.93339 eV ==== 
     psi = 0.231*[#   3]+0.231*[#   4]+0.231*[#   7]+0.231*[#   8]+0.033*[#   1]
          +0.033*[#   5]
    |psi|^2 = 0.989
==== e(   4) =    -6.79540 eV ==== 
     psi = 0.496*[#   2]+0.496*[#   6]
    |psi|^2 = 0.992
==== e(   5) =     2.43068 eV ==== 
     psi = 0.487*[#   2]+0.487*[#   6]
    |psi|^2 = 0.974
==== e(   6) =     4.68898 eV ==== 
     psi = 0.005*[#   3]+0.005*[#   4]+0.005*[#   7]+0.005*[#   8]
    |psi|^2 = 0.019
==== e(   7) =     5.38685 eV ==== 
     psi = 0.001*[#   2]+0.001*[#   6]
    |psi|^2 = 0.002
==== e(   8) =     5.57947 eV ==== 
 
    |psi|^2 = 0.001
==== e(   9) =     6.50532 eV ==== 
 
    |psi|^2 = 0.001
==== e(  10) =     6.98091 eV ==== 
 
    |psi|^2 = 0.003
==== e(  11) =     8.35802 eV ==== 
     psi = 0.130*[#   1]+0.130*[#   5]+0.125*[#   3]+0.125*[#   4]+0.125*[#   7]
          +0.125*[#   8]
    |psi|^2 = 0.761
==== e(  12) =     8.54265 eV ==== 
 
    |psi|^2 = 0.001
==== e(  13) =     9.32669 eV ==== 
     psi = 0.006*[#   3]+0.006*[#   4]+0.006*[#   7]+0.006*[#   8]+0.002*[#   1]
          +0.002*[#   5]
    |psi|^2 = 0.027
==== e(  14) =     9.47069 eV ==== 
     psi = 0.278*[#   1]+0.278*[#   5]+0.094*[#   3]+0.094*[#   4]+0.094*[#   7]
          +0.094*[#   8]
    |psi|^2 = 0.931
==== e(  15) =    11.20281 eV ==== 
 
    |psi|^2 = 0.000
==== e(  16) =    12.40104 eV ==== 
 
    |psi|^2 = 0.003

 k =  -0.1933333331  0.3348631565  0.0000000000
==== e(   1) =   -19.35797 eV ==== 
     psi = 0.300*[#   1]+0.300*[#   5]+0.095*[#   3]+0.095*[#   4]+0.095*[#   7]
          +0.095*[#   8]
    |psi|^2 = 0.981
==== e(   2) =   -11.19367 eV ==== 
     psi = 0.187*[#   3]+0.187*[#   4]+0.187*[#   7]+0.187*[#   8]+0.123*[#   1]
          +0.123*[#   5]
    |psi|^2 = 0.996
==== e(   3) =    -9.72612 eV ==== 
     psi = 0.231*[#   3]+0.231*[#   4]+0.231*[#   7]+0.231*[#   8]+0.032*[#   1]
          +0.032*[#   5]
    |psi|^2 = 0.989
==== e(   4) =    -6.99596 eV ==== 
     psi = 0.495*[#   2]+0.495*[#   6]
    |psi|^2 = 0.991
==== e(   5) =     2.72070 eV ==== 
     psi = 0.487*[#   2]+0.487*[#   6]
    |psi|^2 = 0.973
==== e(   6) =     4.43849 eV ==== 
     psi = 0.005*[#   3]+0.005*[#   4]+0.005*[#   7]+0.005*[#   8]
    |psi|^2 = 0.021
==== e(   7) =     5.13691 eV ==== 
     psi = 0.001*[#   2]+0.001*[#   6]
    |psi|^2 = 0.003
==== e(   8) =     5.32157 eV ==== 
 
    |psi|^2 = 0.002
==== e(   9) =     6.25751 eV ==== 
 
    |psi|^2 = 0.002
==== e(  10) =     6.72623 eV ==== 
 
    |psi|^2 = 0.003
==== e(  11) =     8.18203 eV ==== 
     psi = 0.128*[#   1]+0.128*[#   5]+0.128*[#   3]+0.128*[#   4]+0.128*[#   7]
          +0.128*[#   8]
    |psi|^2 = 0.767
==== e(  12) =     8.30867 eV ==== 
 
    |psi|^2 = 0.001
==== e(  13) =     9.07624 eV ==== 
     psi = 0.007*[#   3]+0.007*[#   4]+0.007*[#   7]+0.007*[#   8]+0.002*[#   1]
          +0.002*[#   5]
    |psi|^2 = 0.032
==== e(  14) =     9.38153 eV ==== 
     psi = 0.275*[#   1]+0.275*[#   5]+0.097*[#   3]+0.097*[#   4]+0.097*[#   7]
          +0.097*[#   8]
    |psi|^2 = 0.936
==== e(  15) =    11.04684 eV ==== 
 
    |psi|^2 = 0.000
==== e(  16) =    12.15374 eV ==== 
 
    |psi|^2 = 0.003

 k =  -0.1866666665  0.3233161511  0.0000000000
==== e(   1) =   -19.53045 eV ==== 
     psi = 0.306*[#   1]+0.306*[#   5]+0.092*[#   3]+0.092*[#   4]+0.092*[#   7]
          +0.092*[#   8]
    |psi|^2 = 0.981
==== e(   2) =   -10.96229 eV ==== 
     psi = 0.190*[#   3]+0.190*[#   4]+0.190*[#   7]+0.190*[#   8]+0.118*[#   1]
          +0.118*[#   5]
    |psi|^2 = 0.996
==== e(   3) =    -9.51788 eV ==== 
     psi = 0.232*[#   3]+0.232*[#   4]+0.232*[#   7]+0.232*[#   8]+0.031*[#   1]
          +0.031*[#   5]
    |psi|^2 = 0.989
==== e(   4) =    -7.19150 eV ==== 
     psi = 0.495*[#   2]+0.495*[#   6]
    |psi|^2 = 0.989
==== e(   5) =     3.01280 eV ==== 
     psi = 0.486*[#   2]+0.486*[#   6]
    |psi|^2 = 0.972
==== e(   6) =     4.19618 eV ==== 
     psi = 0.006*[#   3]+0.006*[#   4]+0.006*[#   7]+0.006*[#   8]
    |psi|^2 = 0.023
==== e(   7) =     4.89447 eV ==== 
     psi = 0.002*[#   2]+0.002*[#   6]
    |psi|^2 = 0.003
==== e(   8) =     5.07238 eV ==== 
 
    |psi|^2 = 0.002
==== e(   9) =     6.01695 eV ==== 
     psi = 0.001*[#   2]+0.001*[#   6]
    |psi|^2 = 0.002
==== e(  10) =     6.47997 eV ==== 
 
    |psi|^2 = 0.003
==== e(  11) =     8.01081 eV ==== 
     psi = 0.130*[#   3]+0.130*[#   4]+0.130*[#   7]+0.130*[#   8]+0.126*[#   1]
          +0.126*[#   5]
    |psi|^2 = 0.771
==== e(  12) =     8.07901 eV ==== 
 
    |psi|^2 = 0.001
==== e(  13) =     8.83425 eV ==== 
     psi = 0.008*[#   3]+0.008*[#   4]+0.008*[#   7]+0.008*[#   8]+0.003*[#   1]
          +0.003*[#   5]
    |psi|^2 = 0.038
==== e(  14) =     9.29129 eV ==== 
     psi = 0.271*[#   1]+0.271*[#   5]+0.099*[#   3]+0.099*[#   4]+0.099*[#   7]
          +0.099*[#   8]
    |psi|^2 = 0.940
==== e(  15) =    10.87237 eV ==== 
 
    |psi|^2 = 0.000
==== e(  16) =    11.91412 eV ==== 
 
    |psi|^2 = 0.004

 k =  -0.1799999998  0.3117691457  0.0000000000
==== e(   1) =   -19.69742 eV ==== 
     psi = 0.312*[#   1]+0.312*[#   5]+0.089*[#   3]+0.089*[#   4]+0.089*[#   7]
          +0.089*[#   8]
    |psi|^2 = 0.981
==== e(   2) =   -10.72773 eV ==== 
     psi = 0.192*[#   3]+0.192*[#   4]+0.192*[#   7]+0.192*[#   8]+0.113*[#   1]
          +0.113*[#   5]
    |psi|^2 = 0.996
==== e(   3) =    -9.30909 eV ==== 
     psi = 0.233*[#   3]+0.233*[#   4]+0.233*[#   7]+0.233*[#   8]+0.030*[#   1]
          +0.030*[#   5]
    |psi|^2 = 0.989
==== e(   4) =    -7.38177 eV ==== 
     psi = 0.494*[#   2]+0.494*[#   6]
    |psi|^2 = 0.988
==== e(   5) =     3.30651 eV ==== 
     psi = 0.486*[#   2]+0.486*[#   6]
    |psi|^2 = 0.972
==== e(   6) =     3.96210 eV ==== 
     psi = 0.006*[#   3]+0.006*[#   4]+0.006*[#   7]+0.006*[#   8]
    |psi|^2 = 0.025
==== e(   7) =     4.65979 eV ==== 
     psi = 0.002*[#   2]+0.002*[#   6]
    |psi|^2 = 0.004
==== e(   8) =     4.83191 eV ==== 
 
    |psi|^2 = 0.002
==== e(   9) =     5.78393 eV ==== 
     psi = 0.001*[#   2]+0.001*[#   6]
    |psi|^2 = 0.003
==== e(  10) =     6.24221 eV ==== 
 
    |psi|^2 = 0.003
==== e(  11) =     7.84473 eV ==== 
     psi = 0.131*[#   3]+0.131*[#   4]+0.131*[#   7]+0.131*[#   8]+0.123*[#   1]
          +0.123*[#   5]
    |psi|^2 = 0.772
==== e(  12) =     7.85476 eV ==== 
 
    |psi|^2 = 0.002
==== e(  13) =     8.60082 eV ==== 
     psi = 0.010*[#   3]+0.010*[#   4]+0.010*[#   7]+0.010*[#   8]+0.004*[#   1]
          +0.004*[#   5]
    |psi|^2 = 0.046
==== e(  14) =     9.19981 eV ==== 
     psi = 0.266*[#   1]+0.266*[#   5]+0.103*[#   3]+0.103*[#   4]+0.103*[#   7]
          +0.103*[#   8]
    |psi|^2 = 0.943
==== e(  15) =    10.68795 eV ==== 
 
    |psi|^2 = 0.001
==== e(  16) =    11.68232 eV ==== 
     psi = 0.001*[#   3]+0.001*[#   4]+0.001*[#   7]+0.001*[#   8]
    |psi|^2 = 0.004

 k =  -0.1733333332  0.3002221403  0.0000000000
==== e(   1) =   -19.85882 eV ==== 
     psi = 0.318*[#   1]+0.318*[#   5]+0.086*[#   3]+0.086*[#   4]+0.086*[#   7]
          +0.086*[#   8]
    |psi|^2 = 0.981
==== e(   2) =   -10.49026 eV ==== 
     psi = 0.195*[#   3]+0.195*[#   4]+0.195*[#   7]+0.195*[#   8]+0.108*[#   1]
          +0.108*[#   5]
    |psi|^2 = 0.996
==== e(   3) =    -9.10022 eV ==== 
     psi = 0.233*[#   3]+0.233*[#   4]+0.233*[#   7]+0.233*[#   8]+0.028*[#   1]
          +0.028*[#   5]
    |psi|^2 = 0.990
==== e(   4) =    -7.56656 eV ==== 
     psi = 0.493*[#   2]+0.493*[#   6]
    |psi|^2 = 0.986
==== e(   5) =     3.60131 eV ==== 
     psi = 0.485*[#   2]+0.485*[#   6]
    |psi|^2 = 0.971
==== e(   6) =     3.73631 eV ==== 
     psi = 0.007*[#   3]+0.007*[#   4]+0.007*[#   7]+0.007*[#   8]
    |psi|^2 = 0.028
==== e(   7) =     4.43304 eV ==== 
     psi = 0.002*[#   2]+0.002*[#   6]
    |psi|^2 = 0.004
==== e(   8) =     4.60016 eV ==== 
 
    |psi|^2 = 0.002
==== e(   9) =     5.55868 eV ==== 
     psi = 0.002*[#   2]+0.002*[#   6]
    |psi|^2 = 0.003
==== e(  10) =     6.01296 eV ==== 
 
    |psi|^2 = 0.003
==== e(  11) =     7.63667 eV ==== 
     psi = 0.001*[#   2]+0.001*[#   6]
    |psi|^2 = 0.002
==== e(  12) =     7.68405 eV ==== 
     psi = 0.133*[#   3]+0.133*[#   4]+0.133*[#   7]+0.133*[#   8]+0.120*[#   1]
          +0.120*[#   5]
    |psi|^2 = 0.772
==== e(  13) =     8.37603 eV ==== 
     psi = 0.011*[#   3]+0.011*[#   4]+0.011*[#   7]+0.011*[#   8]+0.005*[#   1]
          +0.005*[#   5]
    |psi|^2 = 0.055
==== e(  14) =     9.10681 eV ==== 
     psi = 0.260*[#   1]+0.260*[#   5]+0.107*[#   3]+0.107*[#   4]+0.107*[#   7]
          +0.107*[#   8]
    |psi|^2 = 0.945
==== e(  15) =    10.49936 eV ==== 
 
    |psi|^2 = 0.001
==== e(  16) =    11.45847 eV ==== 
     psi = 0.001*[#   3]+0.001*[#   4]+0.001*[#   7]+0.001*[#   8]
    |psi|^2 = 0.005

 k =  -0.1666666665  0.2886751349  0.0000000000
==== e(   1) =   -20.01458 eV ==== 
     psi = 0.324*[#   1]+0.324*[#   5]+0.083*[#   3]+0.083*[#   4]+0.083*[#   7]
          +0.083*[#   8]
    |psi|^2 = 0.981
==== e(   2) =   -10.25019 eV ==== 
     psi = 0.198*[#   3]+0.198*[#   4]+0.198*[#   7]+0.198*[#   8]+0.103*[#   1]
          +0.103*[#   5]
    |psi|^2 = 0.996
==== e(   3) =    -8.89176 eV ==== 
     psi = 0.234*[#   3]+0.234*[#   4]+0.234*[#   7]+0.234*[#   8]+0.027*[#   1]
          +0.027*[#   5]
    |psi|^2 = 0.990
==== e(   4) =    -7.74564 eV ==== 
     psi = 0.492*[#   2]+0.492*[#   6]
    |psi|^2 = 0.985
==== e(   5) =     3.51885 eV ==== 
     psi = 0.007*[#   3]+0.007*[#   4]+0.007*[#   7]+0.007*[#   8]
    |psi|^2 = 0.030
==== e(   6) =     3.89662 eV ==== 
     psi = 0.485*[#   2]+0.485*[#   6]
    |psi|^2 = 0.970
==== e(   7) =     4.21438 eV ==== 
     psi = 0.003*[#   2]+0.003*[#   6]
    |psi|^2 = 0.005
==== e(   8) =     4.37715 eV ==== 
 
    |psi|^2 = 0.003
==== e(   9) =     5.34135 eV ==== 
     psi = 0.002*[#   2]+0.002*[#   6]
    |psi|^2 = 0.004
==== e(  10) =     5.79226 eV ==== 
 
    |psi|^2 = 0.003
==== e(  11) =     7.42531 eV ==== 
     psi = 0.001*[#   2]+0.001*[#   6]
    |psi|^2 = 0.002
==== e(  12) =     7.52899 eV ==== 
     psi = 0.134*[#   3]+0.134*[#   4]+0.134*[#   7]+0.134*[#   8]+0.117*[#   1]
          +0.117*[#   5]
    |psi|^2 = 0.769
==== e(  13) =     8.15999 eV ==== 
     psi = 0.014*[#   3]+0.014*[#   4]+0.014*[#   7]+0.014*[#   8]+0.006*[#   1]
          +0.006*[#   5]
    |psi|^2 = 0.065
==== e(  14) =     9.01190 eV ==== 
     psi = 0.252*[#   1]+0.252*[#   5]+0.111*[#   3]+0.111*[#   4]+0.111*[#   7]
          +0.111*[#   8]
    |psi|^2 = 0.947
==== e(  15) =    10.31040 eV ==== 
 
    |psi|^2 = 0.001
==== e(  16) =    11.24266 eV ==== 
     psi = 0.001*[#   3]+0.001*[#   4]+0.001*[#   7]+0.001*[#   8]
    |psi|^2 = 0.005

 k =  -0.1599999998  0.2771281295  0.0000000000
==== e(   1) =   -20.16464 eV ==== 
     psi = 0.330*[#   1]+0.330*[#   5]+0.080*[#   3]+0.080*[#   4]+0.080*[#   7]
          +0.080*[#   8]
    |psi|^2 = 0.981
==== e(   2) =   -10.00779 eV ==== 
     psi = 0.200*[#   3]+0.200*[#   4]+0.200*[#   7]+0.200*[#   8]+0.098*[#   1]
          +0.098*[#   5]
    |psi|^2 = 0.996
==== e(   3) =    -8.68418 eV ==== 
     psi = 0.235*[#   3]+0.235*[#   4]+0.235*[#   7]+0.235*[#   8]+0.025*[#   1]
          +0.025*[#   5]
    |psi|^2 = 0.990
==== e(   4) =    -7.91884 eV ==== 
     psi = 0.491*[#   2]+0.491*[#   6]
    |psi|^2 = 0.983
==== e(   5) =     3.30975 eV ==== 
     psi = 0.008*[#   3]+0.008*[#   4]+0.008*[#   7]+0.008*[#   8]
    |psi|^2 = 0.031
==== e(   6) =     4.00390 eV ==== 
     psi = 0.003*[#   2]+0.003*[#   6]
    |psi|^2 = 0.006
==== e(   7) =     4.16286 eV ==== 
 
    |psi|^2 = 0.003
==== e(   8) =     4.19184 eV ==== 
     psi = 0.485*[#   2]+0.485*[#   6]
    |psi|^2 = 0.970
==== e(   9) =     5.13209 eV ==== 
     psi = 0.002*[#   2]+0.002*[#   6]
    |psi|^2 = 0.004
==== e(  10) =     5.58014 eV ==== 
 
    |psi|^2 = 0.003
==== e(  11) =     7.22106 eV ==== 
     psi = 0.001*[#   2]+0.001*[#   6]
    |psi|^2 = 0.003
==== e(  12) =     7.37974 eV ==== 
     psi = 0.134*[#   3]+0.134*[#   4]+0.134*[#   7]+0.134*[#   8]+0.113*[#   1]
          +0.113*[#   5]
    |psi|^2 = 0.763
==== e(  13) =     7.95277 eV ==== 
     psi = 0.016*[#   3]+0.016*[#   4]+0.016*[#   7]+0.016*[#   8]+0.007*[#   1]
          +0.007*[#   5]
    |psi|^2 = 0.078
==== e(  14) =     8.91467 eV ==== 
     psi = 0.243*[#   1]+0.243*[#   5]+0.115*[#   3]+0.115*[#   4]+0.115*[#   7]
          +0.115*[#   8]
    |psi|^2 = 0.949
==== e(  15) =    10.12359 eV ==== 
 
    |psi|^2 = 0.001
==== e(  16) =    11.03495 eV ==== 
     psi = 0.001*[#   3]+0.001*[#   4]+0.001*[#   7]+0.001*[#   8]
    |psi|^2 = 0.006

 k =  -0.1533333332  0.2655811241  0.0000000000
==== e(   1) =   -20.30891 eV ==== 
     psi = 0.337*[#   1]+0.337*[#   5]+0.077*[#   3]+0.077*[#   4]+0.077*[#   7]
          +0.077*[#   8]
    |psi|^2 = 0.981
==== e(   2) =    -9.76343 eV ==== 
     psi = 0.203*[#   3]+0.203*[#   4]+0.203*[#   7]+0.203*[#   8]+0.093*[#   1]
          +0.093*[#   5]
    |psi|^2 = 0.997
==== e(   3) =    -8.47802 eV ==== 
     psi = 0.236*[#   3]+0.236*[#   4]+0.236*[#   7]+0.236*[#   8]+0.024*[#   1]
          +0.024*[#   5]
    |psi|^2 = 0.990
==== e(   4) =    -8.08597 eV ==== 
     psi = 0.490*[#   2]+0.490*[#   6]
    |psi|^2 = 0.981
==== e(   5) =     3.10905 eV ==== 
     psi = 0.008*[#   3]+0.008*[#   4]+0.008*[#   7]+0.008*[#   8]
    |psi|^2 = 0.033
==== e(   6) =     3.80170 eV ==== 
     psi = 0.003*[#   2]+0.003*[#   6]
    |psi|^2 = 0.006
==== e(   7) =     3.95732 eV ==== 
 
    |psi|^2 = 0.003
==== e(   8) =     4.48630 eV ==== 
     psi = 0.485*[#   2]+0.485*[#   6]
    |psi|^2 = 0.970
==== e(   9) =     4.93099 eV ==== 
     psi = 0.002*[#   2]+0.002*[#   6]
    |psi|^2 = 0.005
==== e(  10) =     5.37661 eV ==== 
 
    |psi|^2 = 0.003
==== e(  11) =     7.02423 eV ==== 
     psi = 0.002*[#   2]+0.002*[#   6]
    |psi|^2 = 0.003
==== e(  12) =     7.23639 eV ==== 
     psi = 0.134*[#   3]+0.134*[#   4]+0.134*[#   7]+0.134*[#   8]+0.108*[#   1]
          +0.108*[#   5]
    |psi|^2 = 0.753
==== e(  13) =     7.75452 eV ==== 
     psi = 0.019*[#   3]+0.019*[#   4]+0.019*[#   7]+0.019*[#   8]+0.008*[#   1]
          +0.008*[#   5]
    |psi|^2 = 0.094
==== e(  14) =     8.81456 eV ==== 
     psi = 0.233*[#   1]+0.233*[#   5]+0.121*[#   3]+0.121*[#   4]+0.121*[#   7]
          +0.121*[#   8]
    |psi|^2 = 0.950
==== e(  15) =     9.94062 eV ==== 
 
    |psi|^2 = 0.002
==== e(  16) =    10.83542 eV ==== 
     psi = 0.002*[#   3]+0.002*[#   4]+0.002*[#   7]+0.002*[#   8]
    |psi|^2 = 0.006

 k =  -0.1466666665  0.2540341187  0.0000000000
==== e(   1) =   -20.44735 eV ==== 
     psi = 0.344*[#   1]+0.344*[#   5]+0.073*[#   3]+0.073*[#   4]+0.073*[#   7]
          +0.073*[#   8]
    |psi|^2 = 0.981
==== e(   2) =    -9.51752 eV ==== 
     psi = 0.205*[#   3]+0.205*[#   4]+0.205*[#   7]+0.205*[#   8]+0.088*[#   1]
          +0.088*[#   5]
    |psi|^2 = 0.997
==== e(   3) =    -8.27381 eV ==== 
     psi = 0.237*[#   3]+0.237*[#   4]+0.237*[#   7]+0.237*[#   8]+0.022*[#   1]
          +0.022*[#   5]
    |psi|^2 = 0.990
==== e(   4) =    -8.24689 eV ==== 
     psi = 0.489*[#   2]+0.489*[#   6]
    |psi|^2 = 0.979
==== e(   5) =     2.91678 eV ==== 
     psi = 0.009*[#   3]+0.009*[#   4]+0.009*[#   7]+0.009*[#   8]
    |psi|^2 = 0.035
==== e(   6) =     3.60785 eV ==== 
     psi = 0.003*[#   2]+0.003*[#   6]
    |psi|^2 = 0.007
==== e(   7) =     3.76051 eV ==== 
 
    |psi|^2 = 0.003
==== e(   8) =     4.73813 eV ==== 
     psi = 0.003*[#   2]+0.003*[#   6]
    |psi|^2 = 0.005
==== e(   9) =     4.77931 eV ==== 
     psi = 0.485*[#   2]+0.485*[#   6]
    |psi|^2 = 0.970
==== e(  10) =     5.18170 eV ==== 
 
    |psi|^2 = 0.003
==== e(  11) =     6.83505 eV ==== 
     psi = 0.002*[#   2]+0.002*[#   6]
    |psi|^2 = 0.004
==== e(  12) =     7.09902 eV ==== 
     psi = 0.133*[#   3]+0.133*[#   4]+0.133*[#   7]+0.133*[#   8]+0.103*[#   1]
          +0.103*[#   5]
    |psi|^2 = 0.740
==== e(  13) =     7.56536 eV ==== 
     psi = 0.023*[#   3]+0.023*[#   4]+0.023*[#   7]+0.023*[#   8]+0.010*[#   1]
          +0.010*[#   5]
    |psi|^2 = 0.113
==== e(  14) =     8.71094 eV ==== 
     psi = 0.222*[#   1]+0.222*[#   5]+0.127*[#   3]+0.127*[#   4]+0.127*[#   7]
          +0.127*[#   8]
    |psi|^2 = 0.951
==== e(  15) =     9.76266 eV ==== 
     psi = 0.001*[#   2]+0.001*[#   6]
    |psi|^2 = 0.002
==== e(  16) =    10.64411 eV ==== 
     psi = 0.002*[#   3]+0.002*[#   4]+0.002*[#   7]+0.002*[#   8]
    |psi|^2 = 0.006

 k =  -0.1399999999  0.2424871133  0.0000000000
==== e(   1) =   -20.57992 eV ==== 
     psi = 0.352*[#   1]+0.352*[#   5]+0.069*[#   3]+0.069*[#   4]+0.069*[#   7]
          +0.069*[#   8]
    |psi|^2 = 0.981
==== e(   2) =    -9.27052 eV ==== 
     psi = 0.208*[#   3]+0.208*[#   4]+0.208*[#   7]+0.208*[#   8]+0.083*[#   1]
          +0.083*[#   5]
    |psi|^2 = 0.997
==== e(   3) =    -8.40145 eV ==== 
     psi = 0.488*[#   2]+0.488*[#   6]
    |psi|^2 = 0.976
==== e(   4) =    -8.07214 eV ==== 
     psi = 0.238*[#   3]+0.238*[#   4]+0.238*[#   7]+0.238*[#   8]+0.020*[#   1]
          +0.020*[#   5]
    |psi|^2 = 0.991
==== e(   5) =     2.73296 eV ==== 
     psi = 0.009*[#   3]+0.009*[#   4]+0.009*[#   7]+0.009*[#   8]
    |psi|^2 = 0.036
==== e(   6) =     3.42240 eV ==== 
     psi = 0.004*[#   2]+0.004*[#   6]
    |psi|^2 = 0.008
==== e(   7) =     3.57244 eV ==== 
 
    |psi|^2 = 0.003
==== e(   8) =     4.55359 eV ==== 
     psi = 0.003*[#   2]+0.003*[#   6]
    |psi|^2 = 0.006
==== e(   9) =     4.99540 eV ==== 
 
    |psi|^2 = 0.004
==== e(  10) =     5.07009 eV ==== 
     psi = 0.485*[#   2]+0.485*[#   6]
    |psi|^2 = 0.970
==== e(  11) =     6.65369 eV ==== 
     psi = 0.002*[#   2]+0.002*[#   6]
    |psi|^2 = 0.004
==== e(  12) =     6.96755 eV ==== 
     psi = 0.131*[#   3]+0.131*[#   4]+0.131*[#   7]+0.131*[#   8]+0.097*[#   1]
          +0.097*[#   5]
    |psi|^2 = 0.720
==== e(  13) =     7.38550 eV ==== 
     psi = 0.029*[#   3]+0.029*[#   4]+0.029*[#   7]+0.029*[#   8]+0.012*[#   1]
          +0.012*[#   5]
    |psi|^2 = 0.138
==== e(  14) =     8.60301 eV ==== 
     psi = 0.209*[#   1]+0.209*[#   5]+0.133*[#   3]+0.133*[#   4]+0.133*[#   7]
          +0.133*[#   8]
    |psi|^2 = 0.951
==== e(  15) =     9.59053 eV ==== 
     psi = 0.001*[#   2]+0.001*[#   6]
    |psi|^2 = 0.002
==== e(  16) =    10.46106 eV ==== 
     psi = 0.002*[#   3]+0.002*[#   4]+0.002*[#   7]+0.002*[#   8]
    |psi|^2 = 0.007

 k =  -0.1333333332  0.2309401079  0.0000000000
==== e(   1) =   -20.70655 eV ==== 
     psi = 0.359*[#   1]+0.359*[#   5]+0.066*[#   3]+0.066*[#   4]+0.066*[#   7]
          +0.066*[#   8]
    |psi|^2 = 0.981
==== e(   2) =    -9.02294 eV ==== 
     psi = 0.211*[#   3]+0.211*[#   4]+0.211*[#   7]+0.211*[#   8]+0.077*[#   1]
          +0.077*[#   5]
    |psi|^2 = 0.997
==== e(   3) =    -8.54951 eV ==== 
     psi = 0.487*[#   2]+0.487*[#   6]
    |psi|^2 = 0.974
==== e(   4) =    -7.87359 eV ==== 
     psi = 0.239*[#   3]+0.239*[#   4]+0.239*[#   7]+0.239*[#   8]+0.018*[#   1]
          +0.018*[#   5]
    |psi|^2 = 0.991
==== e(   5) =     2.55760 eV ==== 
     psi = 0.009*[#   3]+0.009*[#   4]+0.009*[#   7]+0.009*[#   8]
    |psi|^2 = 0.037
==== e(   6) =     3.24540 eV ==== 
     psi = 0.004*[#   2]+0.004*[#   6]
    |psi|^2 = 0.008
==== e(   7) =     3.39312 eV ==== 
 
    |psi|^2 = 0.004
==== e(   8) =     4.37742 eV ==== 
     psi = 0.003*[#   2]+0.003*[#   6]
    |psi|^2 = 0.007
==== e(   9) =     4.81775 eV ==== 
 
    |psi|^2 = 0.004
==== e(  10) =     5.35780 eV ==== 
     psi = 0.485*[#   2]+0.485*[#   6]
    |psi|^2 = 0.970
==== e(  11) =     6.48030 eV ==== 
     psi = 0.002*[#   2]+0.002*[#   6]
    |psi|^2 = 0.005
==== e(  12) =     6.84191 eV ==== 
     psi = 0.128*[#   3]+0.128*[#   4]+0.128*[#   7]+0.128*[#   8]+0.091*[#   1]
          +0.091*[#   5]
    |psi|^2 = 0.694
==== e(  13) =     7.21517 eV ==== 
     psi = 0.035*[#   3]+0.035*[#   4]+0.035*[#   7]+0.035*[#   8]+0.015*[#   1]
          +0.015*[#   5]
    |psi|^2 = 0.170
==== e(  14) =     8.49000 eV ==== 
     psi = 0.194*[#   1]+0.194*[#   5]+0.141*[#   3]+0.141*[#   4]+0.141*[#   7]
          +0.141*[#   8]
    |psi|^2 = 0.951
==== e(  15) =     9.42483 eV ==== 
     psi = 0.001*[#   2]+0.001*[#   6]
    |psi|^2 = 0.003
==== e(  16) =    10.28631 eV ==== 
     psi = 0.002*[#   3]+0.002*[#   4]+0.002*[#   7]+0.002*[#   8]
    |psi|^2 = 0.007

 k =  -0.1266666665  0.2193931025  0.0000000000
==== e(   1) =   -20.82722 eV ==== 
     psi = 0.367*[#   1]+0.367*[#   5]+0.062*[#   3]+0.062*[#   4]+0.062*[#   7]
          +0.062*[#   8]
    |psi|^2 = 0.981
==== e(   2) =    -8.77534 eV ==== 
     psi = 0.213*[#   3]+0.213*[#   4]+0.213*[#   7]+0.213*[#   8]+0.072*[#   1]
          +0.072*[#   5]
    |psi|^2 = 0.997
==== e(   3) =    -8.69097 eV ==== 
     psi = 0.486*[#   2]+0.486*[#   6]
    |psi|^2 = 0.972
==== e(   4) =    -7.67877 eV ==== 
     psi = 0.240*[#   3]+0.240*[#   4]+0.240*[#   7]+0.240*[#   8]+0.016*[#   1]
          +0.016*[#   5]
    |psi|^2 = 0.991
==== e(   5) =     2.39074 eV ==== 
     psi = 0.009*[#   3]+0.009*[#   4]+0.009*[#   7]+0.009*[#   8]
    |psi|^2 = 0.038
==== e(   6) =     3.07689 eV ==== 
     psi = 0.004*[#   2]+0.004*[#   6]
    |psi|^2 = 0.009
==== e(   7) =     3.22254 eV ==== 
 
    |psi|^2 = 0.004
==== e(   8) =     4.20967 eV ==== 
     psi = 0.004*[#   2]+0.004*[#   6]
    |psi|^2 = 0.007
==== e(   9) =     4.64874 eV ==== 
 
    |psi|^2 = 0.004
==== e(  10) =     5.64161 eV ==== 
     psi = 0.485*[#   2]+0.485*[#   6]
    |psi|^2 = 0.971
==== e(  11) =     6.31498 eV ==== 
     psi = 0.002*[#   2]+0.002*[#   6]
    |psi|^2 = 0.005
==== e(  12) =     6.72183 eV ==== 
     psi = 0.123*[#   3]+0.123*[#   4]+0.123*[#   7]+0.123*[#   8]+0.083*[#   1]
          +0.083*[#   5]
    |psi|^2 = 0.658
==== e(  13) =     7.05471 eV ==== 
     psi = 0.044*[#   3]+0.044*[#   4]+0.044*[#   7]+0.044*[#   8]+0.018*[#   1]
          +0.018*[#   5]
    |psi|^2 = 0.210
==== e(  14) =     8.37100 eV ==== 
     psi = 0.178*[#   1]+0.178*[#   5]+0.149*[#   3]+0.149*[#   4]+0.149*[#   7]
          +0.149*[#   8]
    |psi|^2 = 0.951
==== e(  15) =     9.26599 eV ==== 
     psi = 0.001*[#   2]+0.001*[#   6]
    |psi|^2 = 0.003
==== e(  16) =    10.11988 eV ==== 
     psi = 0.002*[#   3]+0.002*[#   4]+0.002*[#   7]+0.002*[#   8]
    |psi|^2 = 0.007

 k =  -0.1199999999  0.2078460971  0.0000000000
==== e(   1) =   -20.94190 eV ==== 
     psi = 0.375*[#   1]+0.375*[#   5]+0.058*[#   3]+0.058*[#   4]+0.058*[#   7]
          +0.058*[#   8]
    |psi|^2 = 0.981
==== e(   2) =    -8.82571 eV ==== 
     psi = 0.485*[#   2]+0.485*[#   6]
    |psi|^2 = 0.970
==== e(   3) =    -8.52836 eV ==== 
     psi = 0.216*[#   3]+0.216*[#   4]+0.216*[#   7]+0.216*[#   8]+0.067*[#   1]
          +0.067*[#   5]
    |psi|^2 = 0.997
==== e(   4) =    -7.48831 eV ==== 
     psi = 0.241*[#   3]+0.241*[#   4]+0.241*[#   7]+0.241*[#   8]+0.014*[#   1]
          +0.014*[#   5]
    |psi|^2 = 0.992
==== e(   5) =     2.23238 eV ==== 
     psi = 0.009*[#   3]+0.009*[#   4]+0.009*[#   7]+0.009*[#   8]
    |psi|^2 = 0.038
==== e(   6) =     2.91690 eV ==== 
     psi = 0.005*[#   2]+0.005*[#   6]
    |psi|^2 = 0.010
==== e(   7) =     3.06071 eV ==== 
 
    |psi|^2 = 0.004
==== e(   8) =     4.05038 eV ==== 
     psi = 0.004*[#   2]+0.004*[#   6]
    |psi|^2 = 0.008
==== e(   9) =     4.48838 eV ==== 
 
    |psi|^2 = 0.004
==== e(  10) =     5.92059 eV ==== 
     psi = 0.486*[#   2]+0.486*[#   6]
    |psi|^2 = 0.971
==== e(  11) =     6.15784 eV ==== 
     psi = 0.003*[#   2]+0.003*[#   6]
    |psi|^2 = 0.005
==== e(  12) =     6.60696 eV ==== 
     psi = 0.115*[#   3]+0.115*[#   4]+0.115*[#   7]+0.115*[#   8]+0.075*[#   1]
          +0.075*[#   5]
    |psi|^2 = 0.611
==== e(  13) =     6.90455 eV ==== 
     psi = 0.055*[#   3]+0.055*[#   4]+0.055*[#   7]+0.055*[#   8]+0.022*[#   1]
          +0.022*[#   5]
    |psi|^2 = 0.262
==== e(  14) =     8.24514 eV ==== 
     psi = 0.161*[#   1]+0.161*[#   5]+0.157*[#   3]+0.157*[#   4]+0.157*[#   7]
          +0.157*[#   8]
    |psi|^2 = 0.951
==== e(  15) =     9.11436 eV ==== 
     psi = 0.002*[#   2]+0.002*[#   6]
    |psi|^2 = 0.003
==== e(  16) =     9.96180 eV ==== 
     psi = 0.002*[#   3]+0.002*[#   4]+0.002*[#   7]+0.002*[#   8]
    |psi|^2 = 0.007

 k =  -0.1133333332  0.1962990917  0.0000000000
==== e(   1) =   -21.05054 eV ==== 
     psi = 0.383*[#   1]+0.383*[#   5]+0.054*[#   3]+0.054*[#   4]+0.054*[#   7]
          +0.054*[#   8]
    |psi|^2 = 0.981
==== e(   2) =    -8.95364 eV ==== 
     psi = 0.484*[#   2]+0.484*[#   6]
    |psi|^2 = 0.968
==== e(   3) =    -8.28276 eV ==== 
     psi = 0.218*[#   3]+0.218*[#   4]+0.218*[#   7]+0.218*[#   8]+0.062*[#   1]
          +0.062*[#   5]
    |psi|^2 = 0.997
==== e(   4) =    -7.30289 eV ==== 
     psi = 0.242*[#   3]+0.242*[#   4]+0.242*[#   7]+0.242*[#   8]+0.013*[#   1]
          +0.013*[#   5]
    |psi|^2 = 0.992
==== e(   5) =     2.08253 eV ==== 
     psi = 0.009*[#   3]+0.009*[#   4]+0.009*[#   7]+0.009*[#   8]
    |psi|^2 = 0.038
==== e(   6) =     2.76545 eV ==== 
     psi = 0.005*[#   2]+0.005*[#   6]
    |psi|^2 = 0.010
==== e(   7) =     2.90762 eV ==== 
 
    |psi|^2 = 0.004
==== e(   8) =     3.89957 eV ==== 
     psi = 0.004*[#   2]+0.004*[#   6]
    |psi|^2 = 0.008
==== e(   9) =     4.33669 eV ==== 
     psi = 0.001*[#   3]+0.001*[#   4]+0.001*[#   7]+0.001*[#   8]
    |psi|^2 = 0.004
==== e(  10) =     6.00893 eV ==== 
     psi = 0.003*[#   2]+0.003*[#   6]
    |psi|^2 = 0.006
==== e(  11) =     6.19373 eV ==== 
     psi = 0.486*[#   2]+0.486*[#   6]
    |psi|^2 = 0.972
==== e(  12) =     6.49678 eV ==== 
     psi = 0.105*[#   3]+0.105*[#   4]+0.105*[#   7]+0.105*[#   8]+0.065*[#   1]
          +0.065*[#   5]
    |psi|^2 = 0.550
==== e(  13) =     6.76525 eV ==== 
     psi = 0.069*[#   3]+0.069*[#   4]+0.069*[#   7]+0.069*[#   8]+0.027*[#   1]
          +0.027*[#   5]
    |psi|^2 = 0.328
==== e(  14) =     8.11158 eV ==== 
     psi = 0.167*[#   3]+0.167*[#   4]+0.167*[#   7]+0.167*[#   8]+0.142*[#   1]
          +0.142*[#   5]
    |psi|^2 = 0.950
==== e(  15) =     8.97019 eV ==== 
     psi = 0.002*[#   2]+0.002*[#   6]
    |psi|^2 = 0.003
==== e(  16) =     9.81208 eV ==== 
     psi = 0.002*[#   3]+0.002*[#   4]+0.002*[#   7]+0.002*[#   8]
    |psi|^2 = 0.008

 k =  -0.1066666666  0.1847520863  0.0000000000
==== e(   1) =   -21.15310 eV ==== 
     psi = 0.391*[#   1]+0.391*[#   5]+0.050*[#   3]+0.050*[#   4]+0.050*[#   7]
          +0.050*[#   8]
    |psi|^2 = 0.982
==== e(   2) =    -9.07466 eV ==== 
     psi = 0.483*[#   2]+0.483*[#   6]
    |psi|^2 = 0.965
==== e(   3) =    -8.03933 eV ==== 
     psi = 0.221*[#   3]+0.221*[#   4]+0.221*[#   7]+0.221*[#   8]+0.057*[#   1]
          +0.057*[#   5]
    |psi|^2 = 0.997
==== e(   4) =    -7.12313 eV ==== 
     psi = 0.243*[#   3]+0.243*[#   4]+0.243*[#   7]+0.243*[#   8]+0.011*[#   1]
          +0.011*[#   5]
    |psi|^2 = 0.993
==== e(   5) =     1.94122 eV ==== 
     psi = 0.009*[#   3]+0.009*[#   4]+0.009*[#   7]+0.009*[#   8]
    |psi|^2 = 0.038
==== e(   6) =     2.62258 eV ==== 
     psi = 0.006*[#   2]+0.006*[#   6]
    |psi|^2 = 0.011
==== e(   7) =     2.76328 eV ==== 
 
    |psi|^2 = 0.004
==== e(   8) =     3.75728 eV ==== 
     psi = 0.005*[#   2]+0.005*[#   6]
    |psi|^2 = 0.009
==== e(   9) =     4.19365 eV ==== 
     psi = 0.001*[#   3]+0.001*[#   4]+0.001*[#   7]+0.001*[#   8]
    |psi|^2 = 0.004
==== e(  10) =     5.86833 eV ==== 
     psi = 0.003*[#   2]+0.003*[#   6]
    |psi|^2 = 0.006
==== e(  11) =     6.39070 eV ==== 
     psi = 0.092*[#   3]+0.092*[#   4]+0.092*[#   7]+0.092*[#   8]+0.054*[#   1]
          +0.054*[#   5]
    |psi|^2 = 0.475
==== e(  12) =     6.46001 eV ==== 
     psi = 0.487*[#   2]+0.487*[#   6]
    |psi|^2 = 0.973
==== e(  13) =     6.63740 eV ==== 
     psi = 0.086*[#   3]+0.086*[#   4]+0.086*[#   7]+0.086*[#   8]+0.032*[#   1]
          +0.032*[#   5]
    |psi|^2 = 0.408
==== e(  14) =     7.96977 eV ==== 
     psi = 0.176*[#   3]+0.176*[#   4]+0.176*[#   7]+0.176*[#   8]+0.123*[#   1]
          +0.123*[#   5]
    |psi|^2 = 0.950
==== e(  15) =     8.83367 eV ==== 
     psi = 0.002*[#   2]+0.002*[#   6]
    |psi|^2 = 0.004
==== e(  16) =     9.67076 eV ==== 
     psi = 0.002*[#   3]+0.002*[#   4]+0.002*[#   7]+0.002*[#   8]
    |psi|^2 = 0.008

 k =  -0.0999999999  0.1732050809  0.0000000000
==== e(   1) =   -21.24957 eV ==== 
     psi = 0.400*[#   1]+0.400*[#   5]+0.046*[#   3]+0.046*[#   4]+0.046*[#   7]
          +0.046*[#   8]
    |psi|^2 = 0.982
==== e(   2) =    -9.18870 eV ==== 
     psi = 0.482*[#   2]+0.482*[#   6]
    |psi|^2 = 0.963
==== e(   3) =    -7.79900 eV ==== 
     psi = 0.223*[#   3]+0.223*[#   4]+0.223*[#   7]+0.223*[#   8]+0.052*[#   1]
          +0.052*[#   5]
    |psi|^2 = 0.997
==== e(   4) =    -6.94972 eV ==== 
     psi = 0.244*[#   3]+0.244*[#   4]+0.244*[#   7]+0.244*[#   8]+0.009*[#   1]
          +0.009*[#   5]
    |psi|^2 = 0.993
==== e(   5) =     1.80844 eV ==== 
     psi = 0.009*[#   3]+0.009*[#   4]+0.009*[#   7]+0.009*[#   8]
    |psi|^2 = 0.037
==== e(   6) =     2.48829 eV ==== 
     psi = 0.006*[#   2]+0.006*[#   6]
    |psi|^2 = 0.012
==== e(   7) =     2.62769 eV ==== 
 
    |psi|^2 = 0.004
==== e(   8) =     3.62353 eV ==== 
     psi = 0.005*[#   2]+0.005*[#   6]
    |psi|^2 = 0.010
==== e(   9) =     4.05929 eV ==== 
     psi = 0.001*[#   3]+0.001*[#   4]+0.001*[#   7]+0.001*[#   8]
    |psi|^2 = 0.004
==== e(  10) =     5.73608 eV ==== 
     psi = 0.003*[#   2]+0.003*[#   6]
    |psi|^2 = 0.007
==== e(  11) =     6.28818 eV ==== 
     psi = 0.076*[#   3]+0.076*[#   4]+0.076*[#   7]+0.076*[#   8]+0.043*[#   1]
          +0.043*[#   5]
    |psi|^2 = 0.390
==== e(  12) =     6.52152 eV ==== 
     psi = 0.106*[#   3]+0.106*[#   4]+0.106*[#   7]+0.106*[#   8]+0.038*[#   1]
          +0.038*[#   5]
    |psi|^2 = 0.498
==== e(  13) =     6.71836 eV ==== 
     psi = 0.487*[#   2]+0.487*[#   6]
    |psi|^2 = 0.975
==== e(  14) =     7.81941 eV ==== 
     psi = 0.185*[#   3]+0.185*[#   4]+0.185*[#   7]+0.185*[#   8]+0.104*[#   1]
          +0.104*[#   5]
    |psi|^2 = 0.949
==== e(  15) =     8.70496 eV ==== 
     psi = 0.002*[#   2]+0.002*[#   6]
    |psi|^2 = 0.004
==== e(  16) =     9.53784 eV ==== 
     psi = 0.002*[#   3]+0.002*[#   4]+0.002*[#   7]+0.002*[#   8]
    |psi|^2 = 0.008

 k =  -0.0933333332  0.1616580755  0.0000000000
==== e(   1) =   -21.33993 eV ==== 
     psi = 0.408*[#   1]+0.408*[#   5]+0.041*[#   3]+0.041*[#   4]+0.041*[#   7]
          +0.041*[#   8]
    |psi|^2 = 0.982
==== e(   2) =    -9.29569 eV ==== 
     psi = 0.481*[#   2]+0.481*[#   6]
    |psi|^2 = 0.961
==== e(   3) =    -7.56278 eV ==== 
     psi = 0.226*[#   3]+0.226*[#   4]+0.226*[#   7]+0.226*[#   8]+0.047*[#   1]
          +0.047*[#   5]
    |psi|^2 = 0.997
==== e(   4) =    -6.78337 eV ==== 
     psi = 0.245*[#   3]+0.245*[#   4]+0.245*[#   7]+0.245*[#   8]+0.008*[#   1]
          +0.008*[#   5]
    |psi|^2 = 0.994
==== e(   5) =     1.68422 eV ==== 
     psi = 0.009*[#   3]+0.009*[#   4]+0.009*[#   7]+0.009*[#   8]
    |psi|^2 = 0.035
==== e(   6) =     2.36262 eV ==== 
     psi = 0.006*[#   2]+0.006*[#   6]
    |psi|^2 = 0.012
==== e(   7) =     2.50086 eV ==== 
 
    |psi|^2 = 0.004
==== e(   8) =     3.49834 eV ==== 
     psi = 0.005*[#   2]+0.005*[#   6]
    |psi|^2 = 0.010
==== e(   9) =     3.93360 eV ==== 
     psi = 0.001*[#   3]+0.001*[#   4]+0.001*[#   7]+0.001*[#   8]
    |psi|^2 = 0.004
==== e(  10) =     5.61222 eV ==== 
     psi = 0.004*[#   2]+0.004*[#   6]
    |psi|^2 = 0.007
==== e(  11) =     6.18893 eV ==== 
     psi = 0.059*[#   3]+0.059*[#   4]+0.059*[#   7]+0.059*[#   8]+0.033*[#   1]
          +0.033*[#   5]
    |psi|^2 = 0.303
==== e(  12) =     6.41780 eV ==== 
     psi = 0.126*[#   3]+0.126*[#   4]+0.126*[#   7]+0.126*[#   8]+0.042*[#   1]
          +0.042*[#   5]
    |psi|^2 = 0.590
==== e(  13) =     6.96764 eV ==== 
     psi = 0.488*[#   2]+0.488*[#   6]
    |psi|^2 = 0.976
==== e(  14) =     7.66068 eV ==== 
     psi = 0.195*[#   3]+0.195*[#   4]+0.195*[#   7]+0.195*[#   8]+0.085*[#   1]
          +0.085*[#   5]
    |psi|^2 = 0.949
==== e(  15) =     8.58419 eV ==== 
     psi = 0.002*[#   2]+0.002*[#   6]
    |psi|^2 = 0.004
==== e(  16) =     9.41335 eV ==== 
     psi = 0.002*[#   3]+0.002*[#   4]+0.002*[#   7]+0.002*[#   8]
    |psi|^2 = 0.007

 k =  -0.0866666666  0.1501110701  0.0000000000
==== e(   1) =   -21.42415 eV ==== 
     psi = 0.417*[#   1]+0.417*[#   5]+0.037*[#   3]+0.037*[#   4]+0.037*[#   7]
          +0.037*[#   8]
    |psi|^2 = 0.982
==== e(   2) =    -9.39556 eV ==== 
     psi = 0.480*[#   2]+0.480*[#   6]
    |psi|^2 = 0.959
==== e(   3) =    -7.33186 eV ==== 
     psi = 0.228*[#   3]+0.228*[#   4]+0.228*[#   7]+0.228*[#   8]+0.042*[#   1]
          +0.042*[#   5]
    |psi|^2 = 0.997
==== e(   4) =    -6.62475 eV ==== 
     psi = 0.246*[#   3]+0.246*[#   4]+0.246*[#   7]+0.246*[#   8]+0.006*[#   1]
          +0.006*[#   5]
    |psi|^2 = 0.995
==== e(   5) =     1.56854 eV ==== 
     psi = 0.008*[#   3]+0.008*[#   4]+0.008*[#   7]+0.008*[#   8]
    |psi|^2 = 0.034
==== e(   6) =     2.24556 eV ==== 
     psi = 0.006*[#   2]+0.006*[#   6]
    |psi|^2 = 0.013
==== e(   7) =     2.38277 eV ==== 
 
    |psi|^2 = 0.004
==== e(   8) =     3.38172 eV ==== 
     psi = 0.005*[#   2]+0.005*[#   6]
    |psi|^2 = 0.011
==== e(   9) =     3.81658 eV ==== 
 
    |psi|^2 = 0.004
==== e(  10) =     5.49679 eV ==== 
     psi = 0.004*[#   2]+0.004*[#   6]
    |psi|^2 = 0.008
==== e(  11) =     6.09317 eV ==== 
     psi = 0.044*[#   3]+0.044*[#   4]+0.044*[#   7]+0.044*[#   8]+0.024*[#   1]
          +0.024*[#   5]
    |psi|^2 = 0.224
==== e(  12) =     6.32595 eV ==== 
     psi = 0.146*[#   3]+0.146*[#   4]+0.146*[#   7]+0.146*[#   8]+0.045*[#   1]
          +0.045*[#   5]
    |psi|^2 = 0.674
==== e(  13) =     7.20669 eV ==== 
     psi = 0.489*[#   2]+0.489*[#   6]
    |psi|^2 = 0.978
==== e(  14) =     7.49439 eV ==== 
     psi = 0.203*[#   3]+0.203*[#   4]+0.203*[#   7]+0.203*[#   8]+0.067*[#   1]
          +0.067*[#   5]
    |psi|^2 = 0.948
==== e(  15) =     8.47145 eV ==== 
     psi = 0.002*[#   2]+0.002*[#   6]
    |psi|^2 = 0.004
==== e(  16) =     9.29730 eV ==== 
     psi = 0.002*[#   3]+0.002*[#   4]+0.002*[#   7]+0.002*[#   8]
    |psi|^2 = 0.007

 k =  -0.0799999999  0.1385640647  0.0000000000
==== e(   1) =   -21.50219 eV ==== 
     psi = 0.425*[#   1]+0.425*[#   5]+0.033*[#   3]+0.033*[#   4]+0.033*[#   7]
          +0.033*[#   8]
    |psi|^2 = 0.982
==== e(   2) =    -9.48825 eV ==== 
     psi = 0.479*[#   2]+0.479*[#   6]
    |psi|^2 = 0.957
==== e(   3) =    -7.10749 eV ==== 
     psi = 0.231*[#   3]+0.231*[#   4]+0.231*[#   7]+0.231*[#   8]+0.037*[#   1]
          +0.037*[#   5]
    |psi|^2 = 0.997
==== e(   4) =    -6.47455 eV ==== 
     psi = 0.246*[#   3]+0.246*[#   4]+0.246*[#   7]+0.246*[#   8]+0.005*[#   1]
          +0.005*[#   5]
    |psi|^2 = 0.995
==== e(   5) =     1.46143 eV ==== 
     psi = 0.008*[#   3]+0.008*[#   4]+0.008*[#   7]+0.008*[#   8]
    |psi|^2 = 0.032
==== e(   6) =     2.13713 eV ==== 
     psi = 0.007*[#   2]+0.007*[#   6]
    |psi|^2 = 0.013
==== e(   7) =     2.27343 eV ==== 
 
    |psi|^2 = 0.004
==== e(   8) =     3.27370 eV ==== 
     psi = 0.006*[#   2]+0.006*[#   6]
    |psi|^2 = 0.011
==== e(   9) =     3.70824 eV ==== 
 
    |psi|^2 = 0.004
==== e(  10) =     5.38982 eV ==== 
     psi = 0.004*[#   2]+0.004*[#   6]
    |psi|^2 = 0.008
==== e(  11) =     6.00152 eV ==== 
     psi = 0.032*[#   3]+0.032*[#   4]+0.032*[#   7]+0.032*[#   8]+0.017*[#   1]
          +0.017*[#   5]
    |psi|^2 = 0.160
==== e(  12) =     6.24520 eV ==== 
     psi = 0.163*[#   3]+0.163*[#   4]+0.163*[#   7]+0.163*[#   8]+0.045*[#   1]
          +0.045*[#   5]
    |psi|^2 = 0.744
==== e(  13) =     7.32201 eV ==== 
     psi = 0.211*[#   3]+0.211*[#   4]+0.211*[#   7]+0.211*[#   8]+0.052*[#   1]
          +0.052*[#   5]
    |psi|^2 = 0.948
==== e(  14) =     7.43435 eV ==== 
     psi = 0.490*[#   2]+0.490*[#   6]
    |psi|^2 = 0.980
==== e(  15) =     8.36683 eV ==== 
     psi = 0.002*[#   2]+0.002*[#   6]
    |psi|^2 = 0.005
==== e(  16) =     9.18971 eV ==== 
     psi = 0.002*[#   3]+0.002*[#   4]+0.002*[#   7]+0.002*[#   8]
    |psi|^2 = 0.007

 k =  -0.0733333333  0.1270170593  0.0000000000
==== e(   1) =   -21.57406 eV ==== 
     psi = 0.434*[#   1]+0.434*[#   5]+0.029*[#   3]+0.029*[#   4]+0.029*[#   7]
          +0.029*[#   8]
    |psi|^2 = 0.983
==== e(   2) =    -9.57371 eV ==== 
     psi = 0.478*[#   2]+0.478*[#   6]
    |psi|^2 = 0.955
==== e(   3) =    -6.89110 eV ==== 
     psi = 0.233*[#   3]+0.233*[#   4]+0.233*[#   7]+0.233*[#   8]+0.033*[#   1]
          +0.033*[#   5]
    |psi|^2 = 0.997
==== e(   4) =    -6.33343 eV ==== 
     psi = 0.247*[#   3]+0.247*[#   4]+0.247*[#   7]+0.247*[#   8]+0.004*[#   1]
          +0.004*[#   5]
    |psi|^2 = 0.996
==== e(   5) =     1.36289 eV ==== 
     psi = 0.007*[#   3]+0.007*[#   4]+0.007*[#   7]+0.007*[#   8]
    |psi|^2 = 0.030
==== e(   6) =     2.03735 eV ==== 
     psi = 0.007*[#   2]+0.007*[#   6]
    |psi|^2 = 0.014
==== e(   7) =     2.17284 eV ==== 
 
    |psi|^2 = 0.003
==== e(   8) =     3.17428 eV ==== 
     psi = 0.006*[#   2]+0.006*[#   6]
    |psi|^2 = 0.012
==== e(   9) =     3.60857 eV ==== 
 
    |psi|^2 = 0.004
==== e(  10) =     5.29134 eV ==== 
     psi = 0.004*[#   2]+0.004*[#   6]
    |psi|^2 = 0.008
==== e(  11) =     5.91484 eV ==== 
     psi = 0.022*[#   3]+0.022*[#   4]+0.022*[#   7]+0.022*[#   8]+0.012*[#   1]
          +0.012*[#   5]
    |psi|^2 = 0.111
==== e(  12) =     6.17455 eV ==== 
     psi = 0.178*[#   3]+0.178*[#   4]+0.178*[#   7]+0.178*[#   8]+0.043*[#   1]
          +0.043*[#   5]
    |psi|^2 = 0.798
==== e(  13) =     7.14568 eV ==== 
     psi = 0.218*[#   3]+0.218*[#   4]+0.218*[#   7]+0.218*[#   8]+0.038*[#   1]
          +0.038*[#   5]
    |psi|^2 = 0.948
==== e(  14) =     7.64941 eV ==== 
     psi = 0.491*[#   2]+0.491*[#   6]
    |psi|^2 = 0.982
==== e(  15) =     8.27040 eV ==== 
     psi = 0.002*[#   2]+0.002*[#   6]
    |psi|^2 = 0.005
==== e(  16) =     9.09060 eV ==== 
     psi = 0.002*[#   3]+0.002*[#   4]+0.002*[#   7]+0.002*[#   8]
    |psi|^2 = 0.006

 k =  -0.0666666666  0.1154700540  0.0000000000
==== e(   1) =   -21.63974 eV ==== 
     psi = 0.442*[#   1]+0.442*[#   5]+0.025*[#   3]+0.025*[#   4]+0.025*[#   7]
          +0.025*[#   8]
    |psi|^2 = 0.983
==== e(   2) =    -9.65188 eV ==== 
     psi = 0.477*[#   2]+0.477*[#   6]
    |psi|^2 = 0.954
==== e(   3) =    -6.68427 eV ==== 
     psi = 0.235*[#   3]+0.235*[#   4]+0.235*[#   7]+0.235*[#   8]+0.028*[#   1]
          +0.028*[#   5]
    |psi|^2 = 0.997
==== e(   4) =    -6.20204 eV ==== 
     psi = 0.248*[#   3]+0.248*[#   4]+0.248*[#   7]+0.248*[#   8]+0.003*[#   1]
          +0.003*[#   5]
    |psi|^2 = 0.996
==== e(   5) =     1.27291 eV ==== 
     psi = 0.007*[#   3]+0.007*[#   4]+0.007*[#   7]+0.007*[#   8]
    |psi|^2 = 0.027
==== e(   6) =     1.94622 eV ==== 
     psi = 0.007*[#   2]+0.007*[#   6]
    |psi|^2 = 0.015
==== e(   7) =     2.08100 eV ==== 
 
    |psi|^2 = 0.003
==== e(   8) =     3.08347 eV ==== 
     psi = 0.006*[#   2]+0.006*[#   6]
    |psi|^2 = 0.012
==== e(   9) =     3.51758 eV ==== 
 
    |psi|^2 = 0.004
[...]
==== e(   5) =    -1.71385 eV ==== 
     psi = 0.495*[#   2]+0.495*[#   6]
    |psi|^2 = 0.990
==== e(   6) =     8.41070 eV ==== 
     psi = 0.001*[#   2]+0.001*[#   6]
    |psi|^2 = 0.002
==== e(   7) =    10.06130 eV ==== 
     psi = 0.174*[#   1]+0.174*[#   5]+0.053*[#   3]+0.053*[#   4]+0.053*[#   7]
          +0.053*[#   8]
    |psi|^2 = 0.561
==== e(   8) =    10.06990 eV ==== 
     psi = 0.046*[#   1]+0.046*[#   5]+0.014*[#   3]+0.014*[#   4]+0.014*[#   7]
          +0.014*[#   8]
    |psi|^2 = 0.148
==== e(   9) =    10.53335 eV ==== 
     psi = 0.032*[#   1]+0.032*[#   5]+0.018*[#   3]+0.018*[#   4]+0.018*[#   7]
          +0.018*[#   8]
    |psi|^2 = 0.134
==== e(  10) =    11.46727 eV ==== 
 
    |psi|^2 = 0.000
==== e(  11) =    11.63194 eV ==== 
     psi = 0.005*[#   1]+0.005*[#   5]+0.002*[#   3]+0.002*[#   4]+0.002*[#   7]
          +0.002*[#   8]
    |psi|^2 = 0.019
==== e(  12) =    11.66112 eV ==== 
 
    |psi|^2 = 0.001
==== e(  13) =    11.84233 eV ==== 
 
    |psi|^2 = 0.000
==== e(  14) =    12.60517 eV ==== 
 
    |psi|^2 = 0.000
==== e(  15) =    12.64196 eV ==== 
     psi = 0.046*[#   1]+0.046*[#   5]+0.023*[#   3]+0.023*[#   4]+0.023*[#   7]
          +0.023*[#   8]
    |psi|^2 = 0.186
==== e(  16) =    12.87808 eV ==== 
     psi = 0.002*[#   1]+0.002*[#   5]
    |psi|^2 = 0.008

 k =  -0.2799999997  0.5773502697  0.0000000000
==== e(   1) =   -15.55677 eV ==== 
     psi = 0.254*[#   1]+0.254*[#   5]+0.121*[#   3]+0.121*[#   4]+0.121*[#   7]
          +0.121*[#   8]
    |psi|^2 = 0.993
==== e(   2) =   -14.83599 eV ==== 
     psi = 0.188*[#   1]+0.188*[#   5]+0.153*[#   3]+0.153*[#   4]+0.153*[#   7]
          +0.153*[#   8]
    |psi|^2 = 0.990
==== e(   3) =   -12.64372 eV ==== 
     psi = 0.234*[#   3]+0.234*[#   4]+0.234*[#   7]+0.234*[#   8]+0.025*[#   1]
          +0.025*[#   5]
    |psi|^2 = 0.984
==== e(   4) =    -3.12417 eV ==== 
     psi = 0.498*[#   2]+0.498*[#   6]
    |psi|^2 = 0.996
==== e(   5) =    -1.78344 eV ==== 
     psi = 0.495*[#   2]+0.495*[#   6]
    |psi|^2 = 0.990
==== e(   6) =     8.37850 eV ==== 
 
    |psi|^2 = 0.002
==== e(   7) =    10.11982 eV ==== 
     psi = 0.050*[#   1]+0.050*[#   5]+0.016*[#   3]+0.016*[#   4]+0.016*[#   7]
          +0.016*[#   8]
    |psi|^2 = 0.163
==== e(   8) =    10.15508 eV ==== 
     psi = 0.159*[#   1]+0.159*[#   5]+0.048*[#   3]+0.048*[#   4]+0.048*[#   7]
          +0.048*[#   8]
    |psi|^2 = 0.510
==== e(   9) =    10.63334 eV ==== 
     psi = 0.039*[#   1]+0.039*[#   5]+0.020*[#   3]+0.020*[#   4]+0.020*[#   7]
          +0.020*[#   8]
    |psi|^2 = 0.160
==== e(  10) =    11.55721 eV ==== 
 
    |psi|^2 = 0.000
==== e(  11) =    11.71877 eV ==== 
     psi = 0.006*[#   1]+0.006*[#   5]+0.002*[#   3]+0.002*[#   4]+0.002*[#   7]
          +0.002*[#   8]
    |psi|^2 = 0.021
==== e(  12) =    11.75005 eV ==== 
 
    |psi|^2 = 0.001
==== e(  13) =    11.92340 eV ==== 
 
    |psi|^2 = 0.000
==== e(  14) =    12.69478 eV ==== 
     psi = 0.051*[#   1]+0.051*[#   5]+0.025*[#   3]+0.025*[#   4]+0.025*[#   7]
          +0.025*[#   8]
    |psi|^2 = 0.203
==== e(  15) =    12.69517 eV ==== 
 
    |psi|^2 = 0.000
==== e(  16) =    12.95073 eV ==== 
     psi = 0.003*[#   1]+0.003*[#   5]+0.001*[#   3]+0.001*[#   4]+0.001*[#   7]
          +0.001*[#   8]
    |psi|^2 = 0.011

 k =  -0.2866666664  0.5773502697  0.0000000000
==== e(   1) =   -15.49994 eV ==== 
     psi = 0.252*[#   1]+0.252*[#   5]+0.123*[#   3]+0.123*[#   4]+0.123*[#   7]
          +0.123*[#   8]
    |psi|^2 = 0.993
==== e(   2) =   -14.83373 eV ==== 
     psi = 0.195*[#   1]+0.195*[#   5]+0.150*[#   3]+0.150*[#   4]+0.150*[#   7]
          +0.150*[#   8]
    |psi|^2 = 0.991
==== e(   3) =   -12.72505 eV ==== 
     psi = 0.236*[#   3]+0.236*[#   4]+0.236*[#   7]+0.236*[#   8]+0.020*[#   1]
          +0.020*[#   5]
    |psi|^2 = 0.983
==== e(   4) =    -3.04480 eV ==== 
     psi = 0.498*[#   2]+0.498*[#   6]
    |psi|^2 = 0.996
==== e(   5) =    -1.85594 eV ==== 
     psi = 0.495*[#   2]+0.495*[#   6]
    |psi|^2 = 0.991
==== e(   6) =     8.35008 eV ==== 
 
    |psi|^2 = 0.001
==== e(   7) =    10.16843 eV ==== 
     psi = 0.055*[#   1]+0.055*[#   5]+0.017*[#   3]+0.017*[#   4]+0.017*[#   7]
          +0.017*[#   8]
    |psi|^2 = 0.180
==== e(   8) =    10.23533 eV ==== 
     psi = 0.145*[#   1]+0.145*[#   5]+0.044*[#   3]+0.044*[#   4]+0.044*[#   7]
          +0.044*[#   8]
    |psi|^2 = 0.467
==== e(   9) =    10.73199 eV ==== 
     psi = 0.043*[#   1]+0.043*[#   5]+0.022*[#   3]+0.022*[#   4]+0.022*[#   7]
          +0.022*[#   8]
    |psi|^2 = 0.173
==== e(  10) =    11.64930 eV ==== 
 
    |psi|^2 = 0.000
==== e(  11) =    11.80734 eV ==== 
     psi = 0.006*[#   1]+0.006*[#   5]+0.003*[#   3]+0.003*[#   4]+0.003*[#   7]
          +0.003*[#   8]
    |psi|^2 = 0.024
==== e(  12) =    11.84085 eV ==== 
 
    |psi|^2 = 0.001
==== e(  13) =    12.00594 eV ==== 
 
    |psi|^2 = 0.000
==== e(  14) =    12.74657 eV ==== 
     psi = 0.055*[#   1]+0.055*[#   5]+0.028*[#   3]+0.028*[#   4]+0.028*[#   7]
          +0.028*[#   8]
    |psi|^2 = 0.221
==== e(  15) =    12.78734 eV ==== 
 
    |psi|^2 = 0.000
==== e(  16) =    13.02059 eV ==== 
     psi = 0.005*[#   1]+0.005*[#   5]+0.002*[#   3]+0.002*[#   4]+0.002*[#   7]
          +0.002*[#   8]
    |psi|^2 = 0.018

 k =  -0.2933333330  0.5773502697  0.0000000000
==== e(   1) =   -15.44181 eV ==== 
     psi = 0.249*[#   1]+0.249*[#   5]+0.124*[#   3]+0.124*[#   4]+0.124*[#   7]
          +0.124*[#   8]
    |psi|^2 = 0.993
==== e(   2) =   -14.83891 eV ==== 
     psi = 0.202*[#   1]+0.202*[#   5]+0.147*[#   3]+0.147*[#   4]+0.147*[#   7]
          +0.147*[#   8]
    |psi|^2 = 0.991
==== e(   3) =   -12.79746 eV ==== 
     psi = 0.238*[#   3]+0.238*[#   4]+0.238*[#   7]+0.238*[#   8]+0.016*[#   1]
          +0.016*[#   5]
    |psi|^2 = 0.982
==== e(   4) =    -2.96366 eV ==== 
     psi = 0.498*[#   2]+0.498*[#   6]
    |psi|^2 = 0.996
==== e(   5) =    -1.93131 eV ==== 
     psi = 0.496*[#   2]+0.496*[#   6]
    |psi|^2 = 0.992
==== e(   6) =     8.32552 eV ==== 
 
    |psi|^2 = 0.001
==== e(   7) =    10.21540 eV ==== 
     psi = 0.061*[#   1]+0.061*[#   5]+0.019*[#   3]+0.019*[#   4]+0.019*[#   7]
          +0.019*[#   8]
    |psi|^2 = 0.199
==== e(   8) =    10.30354 eV ==== 
     psi = 0.135*[#   1]+0.135*[#   5]+0.041*[#   3]+0.041*[#   4]+0.041*[#   7]
          +0.041*[#   8]
    |psi|^2 = 0.436
==== e(   9) =    10.82466 eV ==== 
     psi = 0.043*[#   1]+0.043*[#   5]+0.021*[#   3]+0.021*[#   4]+0.021*[#   7]
          +0.021*[#   8]
    |psi|^2 = 0.171
==== e(  10) =    11.74353 eV ==== 
 
    |psi|^2 = 0.000
==== e(  11) =    11.89757 eV ==== 
     psi = 0.007*[#   1]+0.007*[#   5]+0.003*[#   3]+0.003*[#   4]+0.003*[#   7]
          +0.003*[#   8]
    |psi|^2 = 0.027
==== e(  12) =    11.93338 eV ==== 
 
    |psi|^2 = 0.001
==== e(  13) =    12.08946 eV ==== 
 
    |psi|^2 = 0.000
==== e(  14) =    12.79745 eV ==== 
     psi = 0.060*[#   1]+0.060*[#   5]+0.029*[#   3]+0.029*[#   4]+0.029*[#   7]
          +0.029*[#   8]
    |psi|^2 = 0.237
==== e(  15) =    12.88166 eV ==== 
 
    |psi|^2 = 0.000
==== e(  16) =    13.08359 eV ==== 
     psi = 0.009*[#   1]+0.009*[#   5]+0.004*[#   3]+0.004*[#   4]+0.004*[#   7]
          +0.004*[#   8]
    |psi|^2 = 0.032

 k =  -0.2999999997  0.5773502697  0.0000000000
==== e(   1) =   -15.38237 eV ==== 
     psi = 0.247*[#   1]+0.247*[#   5]+0.125*[#   3]+0.125*[#   4]+0.125*[#   7]
          +0.125*[#   8]
    |psi|^2 = 0.993
==== e(   2) =   -14.85250 eV ==== 
     psi = 0.209*[#   1]+0.209*[#   5]+0.143*[#   3]+0.143*[#   4]+0.143*[#   7]
          +0.143*[#   8]
    |psi|^2 = 0.992
==== e(   3) =   -12.85990 eV ==== 
     psi = 0.240*[#   3]+0.240*[#   4]+0.240*[#   7]+0.240*[#   8]+0.011*[#   1]
          +0.011*[#   5]
    |psi|^2 = 0.982
==== e(   4) =    -2.88078 eV ==== 
     psi = 0.498*[#   2]+0.498*[#   6]
    |psi|^2 = 0.995
==== e(   5) =    -2.00951 eV ==== 
     psi = 0.496*[#   2]+0.496*[#   6]
    |psi|^2 = 0.992
==== e(   6) =     8.30487 eV ==== 
 
    |psi|^2 = 0.001
==== e(   7) =    10.26043 eV ==== 
     psi = 0.067*[#   1]+0.067*[#   5]+0.021*[#   3]+0.021*[#   4]+0.021*[#   7]
          +0.021*[#   8]
    |psi|^2 = 0.219
==== e(   8) =    10.36061 eV ==== 
     psi = 0.128*[#   1]+0.128*[#   5]+0.039*[#   3]+0.039*[#   4]+0.039*[#   7]
          +0.039*[#   8]
    |psi|^2 = 0.414
==== e(   9) =    10.90695 eV ==== 
     psi = 0.038*[#   1]+0.038*[#   5]+0.019*[#   3]+0.019*[#   4]+0.019*[#   7]
          +0.019*[#   8]
    |psi|^2 = 0.153
==== e(  10) =    11.83991 eV ==== 
 
    |psi|^2 = 0.000
==== e(  11) =    11.98936 eV ==== 
     psi = 0.008*[#   1]+0.008*[#   5]+0.004*[#   3]+0.004*[#   4]+0.004*[#   7]
          +0.004*[#   8]
    |psi|^2 = 0.030
==== e(  12) =    12.02745 eV ==== 
 
    |psi|^2 = 0.001
==== e(  13) =    12.17306 eV ==== 
 
    |psi|^2 = 0.000
==== e(  14) =    12.84770 eV ==== 
     psi = 0.064*[#   1]+0.064*[#   5]+0.031*[#   3]+0.031*[#   4]+0.031*[#   7]
          +0.031*[#   8]
    |psi|^2 = 0.252
==== e(  15) =    12.97812 eV ==== 
 
    |psi|^2 = 0.000
==== e(  16) =    13.12891 eV ==== 
     psi = 0.018*[#   1]+0.018*[#   5]+0.008*[#   3]+0.008*[#   4]+0.008*[#   7]
          +0.008*[#   8]
    |psi|^2 = 0.067

 k =  -0.3066666664  0.5773502697  0.0000000000
==== e(   1) =   -15.32162 eV ==== 
     psi = 0.244*[#   1]+0.244*[#   5]+0.126*[#   3]+0.126*[#   4]+0.126*[#   7]
          +0.126*[#   8]
    |psi|^2 = 0.993
==== e(   2) =   -14.87535 eV ==== 
     psi = 0.216*[#   1]+0.216*[#   5]+0.140*[#   3]+0.140*[#   4]+0.140*[#   7]
          +0.140*[#   8]
    |psi|^2 = 0.992
==== e(   3) =   -12.91149 eV ==== 
     psi = 0.242*[#   3]+0.242*[#   4]+0.242*[#   7]+0.242*[#   8]+0.007*[#   1]
          +0.007*[#   5]
    |psi|^2 = 0.981
==== e(   4) =    -2.79614 eV ==== 
     psi = 0.498*[#   2]+0.498*[#   6]
    |psi|^2 = 0.995
==== e(   5) =    -2.09048 eV ==== 
     psi = 0.496*[#   2]+0.496*[#   6]
    |psi|^2 = 0.993
==== e(   6) =     8.28813 eV ==== 
 
    |psi|^2 = 0.000
==== e(   7) =    10.30317 eV ==== 
     psi = 0.073*[#   1]+0.073*[#   5]+0.023*[#   3]+0.023*[#   4]+0.023*[#   7]
          +0.023*[#   8]
    |psi|^2 = 0.241
==== e(   8) =    10.40652 eV ==== 
     psi = 0.123*[#   1]+0.123*[#   5]+0.038*[#   3]+0.038*[#   4]+0.038*[#   7]
          +0.038*[#   8]
    |psi|^2 = 0.400
==== e(   9) =    10.97521 eV ==== 
     psi = 0.030*[#   1]+0.030*[#   5]+0.016*[#   3]+0.016*[#   4]+0.016*[#   7]
          +0.016*[#   8]
    |psi|^2 = 0.123
==== e(  10) =    11.93843 eV ==== 
 
    |psi|^2 = 0.000
==== e(  11) =    12.08261 eV ==== 
     psi = 0.009*[#   1]+0.009*[#   5]+0.004*[#   3]+0.004*[#   4]+0.004*[#   7]
          +0.004*[#   8]
    |psi|^2 = 0.034
==== e(  12) =    12.12282 eV ==== 
 
    |psi|^2 = 0.002
==== e(  13) =    12.25511 eV ==== 
 
    |psi|^2 = 0.000
==== e(  14) =    12.89776 eV ==== 
     psi = 0.067*[#   1]+0.067*[#   5]+0.033*[#   3]+0.033*[#   4]+0.033*[#   7]
          +0.033*[#   8]
    |psi|^2 = 0.263
==== e(  15) =    13.07674 eV ==== 
 
    |psi|^2 = 0.000
==== e(  16) =    13.12285 eV ==== 
     psi = 0.036*[#   1]+0.036*[#   5]+0.016*[#   3]+0.016*[#   4]+0.016*[#   7]
          +0.016*[#   8]
    |psi|^2 = 0.137

 k =  -0.3133333330  0.5773502697  0.0000000000
==== e(   1) =   -15.25956 eV ==== 
     psi = 0.242*[#   1]+0.242*[#   5]+0.128*[#   3]+0.128*[#   4]+0.128*[#   7]
          +0.128*[#   8]
    |psi|^2 = 0.993
==== e(   2) =   -14.90803 eV ==== 
     psi = 0.222*[#   1]+0.222*[#   5]+0.137*[#   3]+0.137*[#   4]+0.137*[#   7]
          +0.137*[#   8]
    |psi|^2 = 0.993
==== e(   3) =   -12.95159 eV ==== 
     psi = 0.243*[#   3]+0.243*[#   4]+0.243*[#   7]+0.243*[#   8]+0.004*[#   1]
          +0.004*[#   5]
    |psi|^2 = 0.981
==== e(   4) =    -2.70978 eV ==== 
     psi = 0.497*[#   2]+0.497*[#   6]
    |psi|^2 = 0.995
==== e(   5) =    -2.17412 eV ==== 
     psi = 0.497*[#   2]+0.497*[#   6]
    |psi|^2 = 0.993
==== e(   6) =     8.27529 eV ==== 
 
    |psi|^2 = 0.000
==== e(   7) =    10.34330 eV ==== 
     psi = 0.080*[#   1]+0.080*[#   5]+0.026*[#   3]+0.026*[#   4]+0.026*[#   7]
          +0.026*[#   8]
    |psi|^2 = 0.264
==== e(   8) =    10.44025 eV ==== 
     psi = 0.120*[#   1]+0.120*[#   5]+0.038*[#   3]+0.038*[#   4]+0.038*[#   7]
          +0.038*[#   8]
    |psi|^2 = 0.390
==== e(   9) =    11.02694 eV ==== 
     psi = 0.020*[#   1]+0.020*[#   5]+0.011*[#   3]+0.011*[#   4]+0.011*[#   7]
          +0.011*[#   8]
    |psi|^2 = 0.086
==== e(  10) =    12.03909 eV ==== 
 
    |psi|^2 = 0.000
==== e(  11) =    12.17721 eV ==== 
     psi = 0.010*[#   1]+0.010*[#   5]+0.005*[#   3]+0.005*[#   4]+0.005*[#   7]
          +0.005*[#   8]
    |psi|^2 = 0.039
==== e(  12) =    12.21914 eV ==== 
     psi = 0.001*[#   1]+0.001*[#   5]
    |psi|^2 = 0.004
==== e(  13) =    12.33200 eV ==== 
 
    |psi|^2 = 0.000
==== e(  14) =    12.94818 eV ==== 
     psi = 0.069*[#   1]+0.069*[#   5]+0.033*[#   3]+0.033*[#   4]+0.033*[#   7]
          +0.033*[#   8]
    |psi|^2 = 0.271
==== e(  15) =    13.02170 eV ==== 
     psi = 0.037*[#   1]+0.037*[#   5]+0.017*[#   3]+0.017*[#   4]+0.017*[#   7]
          +0.017*[#   8]
    |psi|^2 = 0.143
==== e(  16) =    13.06857 eV ==== 
 
    |psi|^2 = 0.000

 k =  -0.3199999997  0.5773502697  0.0000000000
==== e(   1) =   -15.19619 eV ==== 
     psi = 0.239*[#   1]+0.239*[#   5]+0.129*[#   3]+0.129*[#   4]+0.129*[#   7]
          +0.129*[#   8]
    |psi|^2 = 0.993
==== e(   2) =   -14.95077 eV ==== 
     psi = 0.227*[#   1]+0.227*[#   5]+0.135*[#   3]+0.135*[#   4]+0.135*[#   7]
          +0.135*[#   8]
    |psi|^2 = 0.993
==== e(   3) =   -12.97993 eV ==== 
     psi = 0.244*[#   3]+0.244*[#   4]+0.244*[#   7]+0.244*[#   8]+0.002*[#   1]
          +0.002*[#   5]
    |psi|^2 = 0.980
==== e(   4) =    -2.62168 eV ==== 
     psi = 0.497*[#   2]+0.497*[#   6]
    |psi|^2 = 0.995
==== e(   5) =    -2.26038 eV ==== 
     psi = 0.497*[#   2]+0.497*[#   6]
    |psi|^2 = 0.994
==== e(   6) =     8.26627 eV ==== 
 
    |psi|^2 = 0.000
==== e(   7) =    10.38049 eV ==== 
     psi = 0.088*[#   1]+0.088*[#   5]+0.028*[#   3]+0.028*[#   4]+0.028*[#   7]
          +0.028*[#   8]
    |psi|^2 = 0.289
==== e(   8) =    10.45983 eV ==== 
     psi = 0.116*[#   1]+0.116*[#   5]+0.037*[#   3]+0.037*[#   4]+0.037*[#   7]
          +0.037*[#   8]
    |psi|^2 = 0.381
==== e(   9) =    11.06129 eV ==== 
     psi = 0.010*[#   1]+0.010*[#   5]+0.007*[#   3]+0.007*[#   4]+0.007*[#   7]
          +0.007*[#   8]
    |psi|^2 = 0.050
==== e(  10) =    12.14189 eV ==== 
 
    |psi|^2 = 0.000
==== e(  11) =    12.27300 eV ==== 
     psi = 0.012*[#   1]+0.012*[#   5]+0.005*[#   3]+0.005*[#   4]+0.005*[#   7]
          +0.005*[#   8]
    |psi|^2 = 0.045
==== e(  12) =    12.31592 eV ==== 
     psi = 0.002*[#   1]+0.002*[#   5]+0.001*[#   3]+0.001*[#   4]+0.001*[#   7]
          +0.001*[#   8]
    |psi|^2 = 0.009
==== e(  13) =    12.39444 eV ==== 
 
    |psi|^2 = 0.000
==== e(  14) =    12.86393 eV ==== 
     psi = 0.026*[#   1]+0.026*[#   5]+0.012*[#   3]+0.012*[#   4]+0.012*[#   7]
          +0.012*[#   8]
    |psi|^2 = 0.099
==== e(  15) =    12.94292 eV ==== 
 
    |psi|^2 = 0.000
==== e(  16) =    12.99968 eV ==== 
     psi = 0.070*[#   1]+0.070*[#   5]+0.034*[#   3]+0.034*[#   4]+0.034*[#   7]
          +0.034*[#   8]
    |psi|^2 = 0.275

 k =  -0.3266666663  0.5773502698  0.0000000000
==== e(   1) =   -15.13152 eV ==== 
     psi = 0.236*[#   1]+0.236*[#   5]+0.130*[#   3]+0.130*[#   4]+0.130*[#   7]
          +0.130*[#   8]
    |psi|^2 = 0.993
==== e(   2) =   -15.00344 eV ==== 
     psi = 0.231*[#   1]+0.231*[#   5]+0.133*[#   3]+0.133*[#   4]+0.133*[#   7]
          +0.133*[#   8]
    |psi|^2 = 0.993
==== e(   3) =   -12.99658 eV ==== 
     psi = 0.245*[#   3]+0.245*[#   4]+0.245*[#   7]+0.245*[#   8]
    |psi|^2 = 0.980
==== e(   4) =    -2.53187 eV ==== 
     psi = 0.497*[#   2]+0.497*[#   6]
    |psi|^2 = 0.994
==== e(   5) =    -2.34916 eV ==== 
     psi = 0.497*[#   2]+0.497*[#   6]
    |psi|^2 = 0.994
==== e(   6) =     8.26097 eV ==== 
 
    |psi|^2 = 0.000
==== e(   7) =    10.41445 eV ==== 
     psi = 0.096*[#   1]+0.096*[#   5]+0.031*[#   3]+0.031*[#   4]+0.031*[#   7]
          +0.031*[#   8]
    |psi|^2 = 0.316
==== e(   8) =    10.46244 eV ==== 
     psi = 0.112*[#   1]+0.112*[#   5]+0.036*[#   3]+0.036*[#   4]+0.036*[#   7]
          +0.036*[#   8]
    |psi|^2 = 0.366
==== e(   9) =    11.07943 eV ==== 
     psi = 0.004*[#   3]+0.004*[#   4]+0.004*[#   7]+0.004*[#   8]+0.003*[#   1]
          +0.003*[#   5]
    |psi|^2 = 0.022
==== e(  10) =    12.24683 eV ==== 
 
    |psi|^2 = 0.000
==== e(  11) =    12.36982 eV ==== 
     psi = 0.014*[#   1]+0.014*[#   5]+0.006*[#   3]+0.006*[#   4]+0.006*[#   7]
          +0.006*[#   8]
    |psi|^2 = 0.052
==== e(  12) =    12.41173 eV ==== 
     psi = 0.005*[#   1]+0.005*[#   5]+0.002*[#   3]+0.002*[#   4]+0.002*[#   7]
          +0.002*[#   8]
    |psi|^2 = 0.018
==== e(  13) =    12.41627 eV ==== 
 
    |psi|^2 = 0.000
==== e(  14) =    12.68550 eV ==== 
     psi = 0.015*[#   1]+0.015*[#   5]+0.007*[#   3]+0.007*[#   4]+0.007*[#   7]
          +0.007*[#   8]
    |psi|^2 = 0.058
==== e(  15) =    12.83402 eV ==== 
 
    |psi|^2 = 0.000
==== e(  16) =    13.05304 eV ==== 
     psi = 0.070*[#   1]+0.070*[#   5]+0.034*[#   3]+0.034*[#   4]+0.034*[#   7]
          +0.034*[#   8]
    |psi|^2 = 0.275

 k =  -0.3333333330  0.5773502698  0.0000000000
==== e(   1) =   -15.06556 eV ==== 
     psi = 0.234*[#   1]+0.234*[#   5]+0.131*[#   3]+0.131*[#   4]+0.131*[#   7]
          +0.131*[#   8]
    |psi|^2 = 0.993
==== e(   2) =   -15.06556 eV ==== 
     psi = 0.234*[#   1]+0.234*[#   5]+0.131*[#   3]+0.131*[#   4]+0.131*[#   7]
          +0.131*[#   8]
    |psi|^2 = 0.993
==== e(   3) =   -13.00199 eV ==== 
     psi = 0.245*[#   3]+0.245*[#   4]+0.245*[#   7]+0.245*[#   8]
    |psi|^2 = 0.980
==== e(   4) =    -2.44036 eV ==== 
     psi = 0.497*[#   2]+0.497*[#   6]
    |psi|^2 = 0.994
==== e(   5) =    -2.44036 eV ==== 
     psi = 0.497*[#   2]+0.497*[#   6]
    |psi|^2 = 0.994
==== e(   6) =     8.25924 eV ==== 
 
    |psi|^2 = 0.000
==== e(   7) =    10.44489 eV ==== 
     psi = 0.104*[#   1]+0.104*[#   5]+0.034*[#   3]+0.034*[#   4]+0.034*[#   7]
          +0.034*[#   8]
    |psi|^2 = 0.343
==== e(   8) =    10.44489 eV ==== 
     psi = 0.104*[#   1]+0.104*[#   5]+0.034*[#   3]+0.034*[#   4]+0.034*[#   7]
          +0.034*[#   8]
    |psi|^2 = 0.343
==== e(   9) =    11.08455 eV ==== 
     psi = 0.003*[#   3]+0.003*[#   4]+0.003*[#   7]+0.003*[#   8]
    |psi|^2 = 0.012
==== e(  10) =    12.35391 eV ==== 
 
    |psi|^2 = 0.000
==== e(  11) =    12.35391 eV ==== 
 
    |psi|^2 = 0.000
==== e(  12) =    12.46747 eV ==== 
     psi = 0.016*[#   1]+0.016*[#   5]+0.007*[#   3]+0.007*[#   4]+0.007*[#   7]
          +0.007*[#   8]
    |psi|^2 = 0.059
==== e(  13) =    12.46747 eV ==== 
     psi = 0.016*[#   1]+0.016*[#   5]+0.007*[#   3]+0.007*[#   4]+0.007*[#   7]
          +0.007*[#   8]
    |psi|^2 = 0.059
==== e(  14) =    12.53581 eV ==== 
 
    |psi|^2 = 0.001
==== e(  15) =    12.79494 eV ==== 
 
    |psi|^2 = 0.000
==== e(  16) =    13.10909 eV ==== 
     psi = 0.069*[#   1]+0.069*[#   5]+0.033*[#   3]+0.033*[#   4]+0.033*[#   7]
          +0.033*[#   8]
    |psi|^2 = 0.269

Lowdin Charges: 

     Atom #   1: total charge =   3.9673, s =  0.9099, 
     Atom #   1: total charge =   3.9673, p =  3.0573, pz=  0.9980, px=  1.0297, py=  1.0297, 
     Atom #   2: total charge =   3.9673, s =  0.9099, 
     Atom #   2: total charge =   3.9673, p =  3.0573, pz=  0.9980, px=  1.0297, py=  1.0297, 
     Spilling Parameter:   0.0082
 
     PROJWFC      :      0.52s CPU      1.05s WALL

 
   This run was terminated on:  15:40:45  21Nov2023            

=------------------------------------------------------------------------------=
   JOB DONE.
=------------------------------------------------------------------------------=
