
     Program PWSCF v.7.2 starts on 10Dec2023 at 19:34: 0 

     This program is part of the open-source Quantum ESPRESSO suite
     for quantum simulation of materials; please cite
         "P. Giannozzi et al., J. Phys.:Condens. Matter 21 395502 (2009);
         "P. Giannozzi et al., J. Phys.:Condens. Matter 29 465901 (2017);
         "P. Giannozzi et al., J. Chem. Phys. 152 154105 (2020);
          URL http://www.quantum-espresso.org", 
     in publications or presentations arising from this work. More details at
     http://www.quantum-espresso.org/quote

     Parallel version (MPI & OpenMP), running on      16 processor cores
     Number of MPI processes:                16
     Threads/MPI process:                     1

     MPI processes distributed on     1 nodes
     510533 MiB available memory on the printing compute node when the environment starts

     Reading input from graphene.scf.pwi

     Current dimensions of program PWSCF are:
     Max number of different atomic species (ntypx) = 10
     Max number of k-points (npk) =  40000
     Max angular momentum in pseudopotentials (lmaxx) =  4
     file C.pbe-n-kjpaw_psl.1.0.0.UPF: wavefunction(s)  2S 2P renormalized

     R & G space division:  proc/nbgrp/npool/nimage =      16
     Subspace diagonalization in iterative solution of the eigenvalue problem:
     a serial algorithm will be used


     Parallelization info
     --------------------
     sticks:   dense  smooth     PW     G-vecs:    dense   smooth      PW
     Min          29      29      9                 4273     4273     711
     Max          30      30     10                 4306     4306     728
     Sum         475     475    151                68705    68705   11537

     Using Slab Decomposition


     Title: 
     graphene                                                                   


     bravais-lattice index     =            4
     lattice parameter (alat)  =       4.6627  a.u.
     unit-cell volume          =     711.6007 (a.u.)^3
     number of atoms/cell      =            2
     number of atomic types    =            1
     number of electrons       =         8.00
     number of Kohn-Sham states=            8
     kinetic-energy cutoff     =      80.0000  Ry
     charge density cutoff     =     320.0000  Ry
     scf convergence threshold =      1.0E-10
     mixing beta               =       0.3000
     number of iterations used =            8  plain     mixing
     Exchange-correlation= SLA  PW   PBX  PBC
                           (   1   4   3   4   0   0   0)

     celldm(1)=   4.662710  celldm(2)=   0.000000  celldm(3)=   8.105698
     celldm(4)=   0.000000  celldm(5)=   0.000000  celldm(6)=   0.000000

     crystal axes: (cart. coord. in units of alat)
               a(1) = (   1.000000   0.000000   0.000000 )  
               a(2) = (  -0.500000   0.866025   0.000000 )  
               a(3) = (   0.000000   0.000000   8.105698 )  

     reciprocal axes: (cart. coord. in units 2 pi/alat)
               b(1) = (  1.000000  0.577350 -0.000000 )  
               b(2) = (  0.000000  1.154701  0.000000 )  
               b(3) = (  0.000000 -0.000000  0.123370 )  


     PseudoPot. # 1 for C  read from file:
     /home/caique.campos/Tutorial-espresso-2023/Graphene/pseudos/C.pbe-n-kjpaw_psl.1.0.0.UPF
     MD5 check sum: 5d2aebdfa2cae82b50a7e79e9516da0f
     Pseudo is Projector augmented-wave + core cor, Zval =  4.0
     Generated using "atomic" code by A. Dal Corso  v.5.1
     Shape of augmentation charge: PSQ
     Using radial grid of 1073 points,  4 beta functions with: 
                l(1) =   0
                l(2) =   0
                l(3) =   1
                l(4) =   1
     Q(r) pseudized with 0 coefficients 


     atomic species   valence    mass     pseudopotential
        C              4.00    12.01100     C ( 1.00)

     24 Sym. Ops., with inversion, found (18 have fractional translation)


                                    s                        frac. trans.

      isym =  1     identity                                     

 cryst.   s( 1) = (     1          0          0      )
                  (     0          1          0      )
                  (     0          0          1      )

 cart.    s( 1) = (  1.0000000  0.0000000  0.0000000 )
                  (  0.0000000  1.0000000  0.0000000 )
                  (  0.0000000  0.0000000  1.0000000 )


      isym =  2     180 deg rotation - cart. axis [0,0,1]        

 cryst.   s( 2) = (    -1          0          0      )    f =( -0.3333333 )
                  (     0         -1          0      )       (  0.3333333 )
                  (     0          0          1      )       (  0.0000000 )

 cart.    s( 2) = ( -1.0000000  0.0000000  0.0000000 )    f =( -0.5000000 )
                  (  0.0000000 -1.0000000  0.0000000 )       (  0.2886751 )
                  (  0.0000000  0.0000000  1.0000000 )       (  0.0000000 )


      isym =  3     180 deg rotation - cart. axis [0,1,0]        

 cryst.   s( 3) = (    -1          0          0      )    f =(  0.0000000 )
                  (     1          1          0      )       (  0.0000000 )
                  (     0          0         -1      )       (  0.5000000 )

 cart.    s( 3) = ( -1.0000000  0.0000000  0.0000000 )    f =(  0.0000000 )
                  (  0.0000000  1.0000000  0.0000000 )       (  0.0000000 )
                  (  0.0000000  0.0000000 -1.0000000 )       (  4.0528492 )


      isym =  4     180 deg rotation - cart. axis [1,0,0]        

 cryst.   s( 4) = (     1          0          0      )    f =( -0.3333333 )
                  (    -1         -1          0      )       (  0.3333333 )
                  (     0          0         -1      )       (  0.5000000 )

 cart.    s( 4) = (  1.0000000  0.0000000  0.0000000 )    f =( -0.5000000 )
                  (  0.0000000 -1.0000000  0.0000000 )       (  0.2886751 )
                  (  0.0000000  0.0000000 -1.0000000 )       (  4.0528492 )


      isym =  5      60 deg rotation - cryst. axis [0,0,1]       

 cryst.   s( 5) = (     1          1          0      )    f =( -0.3333333 )
                  (    -1          0          0      )       (  0.3333333 )
                  (     0          0          1      )       (  0.0000000 )

 cart.    s( 5) = (  0.5000000 -0.8660254  0.0000000 )    f =( -0.5000000 )
                  (  0.8660254  0.5000000  0.0000000 )       (  0.2886751 )
                  (  0.0000000  0.0000000  1.0000000 )       (  0.0000000 )


      isym =  6      60 deg rotation - cryst. axis [0,0,-1]      

 cryst.   s( 6) = (     0         -1          0      )    f =( -0.3333333 )
                  (     1          1          0      )       (  0.3333333 )
                  (     0          0          1      )       (  0.0000000 )

 cart.    s( 6) = (  0.5000000  0.8660254  0.0000000 )    f =( -0.5000000 )
                  ( -0.8660254  0.5000000  0.0000000 )       (  0.2886751 )
                  (  0.0000000  0.0000000  1.0000000 )       (  0.0000000 )


      isym =  7     120 deg rotation - cryst. axis [0,0,1]       

 cryst.   s( 7) = (     0          1          0      )
                  (    -1         -1          0      )
                  (     0          0          1      )

 cart.    s( 7) = ( -0.5000000 -0.8660254  0.0000000 )
                  (  0.8660254 -0.5000000  0.0000000 )
                  (  0.0000000  0.0000000  1.0000000 )


      isym =  8     120 deg rotation - cryst. axis [0,0,-1]      

 cryst.   s( 8) = (    -1         -1          0      )
                  (     1          0          0      )
                  (     0          0          1      )

 cart.    s( 8) = ( -0.5000000  0.8660254  0.0000000 )
                  ( -0.8660254 -0.5000000  0.0000000 )
                  (  0.0000000  0.0000000  1.0000000 )


      isym =  9     180 deg rotation - cryst. axis [1,-1,0]      

 cryst.   s( 9) = (     0         -1          0      )    f =(  0.0000000 )
                  (    -1          0          0      )       (  0.0000000 )
                  (     0          0         -1      )       (  0.5000000 )

 cart.    s( 9) = (  0.5000000 -0.8660254  0.0000000 )    f =(  0.0000000 )
                  ( -0.8660254 -0.5000000  0.0000000 )       (  0.0000000 )
                  (  0.0000000  0.0000000 -1.0000000 )       (  4.0528492 )


      isym = 10     180 deg rotation - cryst. axis [2,1,0]       

 cryst.   s(10) = (     1          1          0      )    f =(  0.0000000 )
                  (     0         -1          0      )       (  0.0000000 )
                  (     0          0         -1      )       (  0.5000000 )

 cart.    s(10) = (  0.5000000  0.8660254  0.0000000 )    f =(  0.0000000 )
                  (  0.8660254 -0.5000000  0.0000000 )       (  0.0000000 )
                  (  0.0000000  0.0000000 -1.0000000 )       (  4.0528492 )


      isym = 11     180 deg rotation - cryst. axis [0,1,0]       

 cryst.   s(11) = (    -1         -1          0      )    f =( -0.3333333 )
                  (     0          1          0      )       (  0.3333333 )
                  (     0          0         -1      )       (  0.5000000 )

 cart.    s(11) = ( -0.5000000 -0.8660254  0.0000000 )    f =( -0.5000000 )
                  ( -0.8660254  0.5000000  0.0000000 )       (  0.2886751 )
                  (  0.0000000  0.0000000 -1.0000000 )       (  4.0528492 )


      isym = 12     180 deg rotation - cryst. axis [1,1,0]       

 cryst.   s(12) = (     0          1          0      )    f =( -0.3333333 )
                  (     1          0          0      )       (  0.3333333 )
                  (     0          0         -1      )       (  0.5000000 )

 cart.    s(12) = ( -0.5000000  0.8660254  0.0000000 )    f =( -0.5000000 )
                  (  0.8660254  0.5000000  0.0000000 )       (  0.2886751 )
                  (  0.0000000  0.0000000 -1.0000000 )       (  4.0528492 )


      isym = 13     inversion                                    

 cryst.   s(13) = (    -1          0          0      )    f =( -0.3333333 )
                  (     0         -1          0      )       (  0.3333333 )
                  (     0          0         -1      )       (  0.5000000 )

 cart.    s(13) = ( -1.0000000  0.0000000  0.0000000 )    f =( -0.5000000 )
                  (  0.0000000 -1.0000000  0.0000000 )       (  0.2886751 )
                  (  0.0000000  0.0000000 -1.0000000 )       (  4.0528492 )


      isym = 14     inv. 180 deg rotation - cart. axis [0,0,1]   

 cryst.   s(14) = (     1          0          0      )    f =(  0.0000000 )
                  (     0          1          0      )       (  0.0000000 )
                  (     0          0         -1      )       (  0.5000000 )

 cart.    s(14) = (  1.0000000  0.0000000  0.0000000 )    f =(  0.0000000 )
                  (  0.0000000  1.0000000  0.0000000 )       (  0.0000000 )
                  (  0.0000000  0.0000000 -1.0000000 )       (  4.0528492 )


      isym = 15     inv. 180 deg rotation - cart. axis [0,1,0]   

 cryst.   s(15) = (     1          0          0      )    f =( -0.3333333 )
                  (    -1         -1          0      )       (  0.3333333 )
                  (     0          0          1      )       (  0.0000000 )

 cart.    s(15) = (  1.0000000  0.0000000  0.0000000 )    f =( -0.5000000 )
                  (  0.0000000 -1.0000000  0.0000000 )       (  0.2886751 )
                  (  0.0000000  0.0000000  1.0000000 )       (  0.0000000 )


      isym = 16     inv. 180 deg rotation - cart. axis [1,0,0]   

 cryst.   s(16) = (    -1          0          0      )
                  (     1          1          0      )
                  (     0          0          1      )

 cart.    s(16) = ( -1.0000000  0.0000000  0.0000000 )
                  (  0.0000000  1.0000000  0.0000000 )
                  (  0.0000000  0.0000000  1.0000000 )


      isym = 17     inv.  60 deg rotation - cryst. axis [0,0,1]  

 cryst.   s(17) = (    -1         -1          0      )    f =(  0.0000000 )
                  (     1          0          0      )       (  0.0000000 )
                  (     0          0         -1      )       (  0.5000000 )

 cart.    s(17) = ( -0.5000000  0.8660254  0.0000000 )    f =(  0.0000000 )
                  ( -0.8660254 -0.5000000  0.0000000 )       (  0.0000000 )
                  (  0.0000000  0.0000000 -1.0000000 )       (  4.0528492 )


      isym = 18     inv.  60 deg rotation - cryst. axis [0,0,-1] 

 cryst.   s(18) = (     0          1          0      )    f =(  0.0000000 )
                  (    -1         -1          0      )       (  0.0000000 )
                  (     0          0         -1      )       (  0.5000000 )

 cart.    s(18) = ( -0.5000000 -0.8660254  0.0000000 )    f =(  0.0000000 )
                  (  0.8660254 -0.5000000  0.0000000 )       (  0.0000000 )
                  (  0.0000000  0.0000000 -1.0000000 )       (  4.0528492 )


      isym = 19     inv. 120 deg rotation - cryst. axis [0,0,1]  

 cryst.   s(19) = (     0         -1          0      )    f =( -0.3333333 )
                  (     1          1          0      )       (  0.3333333 )
                  (     0          0         -1      )       (  0.5000000 )

 cart.    s(19) = (  0.5000000  0.8660254  0.0000000 )    f =( -0.5000000 )
                  ( -0.8660254  0.5000000  0.0000000 )       (  0.2886751 )
                  (  0.0000000  0.0000000 -1.0000000 )       (  4.0528492 )


      isym = 20     inv. 120 deg rotation - cryst. axis [0,0,-1] 

 cryst.   s(20) = (     1          1          0      )    f =( -0.3333333 )
                  (    -1          0          0      )       (  0.3333333 )
                  (     0          0         -1      )       (  0.5000000 )

 cart.    s(20) = (  0.5000000 -0.8660254  0.0000000 )    f =( -0.5000000 )
                  (  0.8660254  0.5000000  0.0000000 )       (  0.2886751 )
                  (  0.0000000  0.0000000 -1.0000000 )       (  4.0528492 )


      isym = 21     inv. 180 deg rotation - cryst. axis [1,-1,0] 

 cryst.   s(21) = (     0          1          0      )    f =( -0.3333333 )
                  (     1          0          0      )       (  0.3333333 )
                  (     0          0          1      )       (  0.0000000 )

 cart.    s(21) = ( -0.5000000  0.8660254  0.0000000 )    f =( -0.5000000 )
                  (  0.8660254  0.5000000  0.0000000 )       (  0.2886751 )
                  (  0.0000000  0.0000000  1.0000000 )       (  0.0000000 )


      isym = 22     inv. 180 deg rotation - cryst. axis [2,1,0]  

 cryst.   s(22) = (    -1         -1          0      )    f =( -0.3333333 )
                  (     0          1          0      )       (  0.3333333 )
                  (     0          0          1      )       (  0.0000000 )

 cart.    s(22) = ( -0.5000000 -0.8660254  0.0000000 )    f =( -0.5000000 )
                  ( -0.8660254  0.5000000  0.0000000 )       (  0.2886751 )
                  (  0.0000000  0.0000000  1.0000000 )       (  0.0000000 )


      isym = 23     inv. 180 deg rotation - cryst. axis [0,1,0]  

 cryst.   s(23) = (     1          1          0      )
                  (     0         -1          0      )
                  (     0          0          1      )

 cart.    s(23) = (  0.5000000  0.8660254  0.0000000 )
                  (  0.8660254 -0.5000000  0.0000000 )
                  (  0.0000000  0.0000000  1.0000000 )


      isym = 24     inv. 180 deg rotation - cryst. axis [1,1,0]  

 cryst.   s(24) = (     0         -1          0      )
                  (    -1          0          0      )
                  (     0          0          1      )

 cart.    s(24) = (  0.5000000 -0.8660254  0.0000000 )
                  ( -0.8660254 -0.5000000  0.0000000 )
                  (  0.0000000  0.0000000  1.0000000 )


     point group D_6h(6/mmm)
     there are 12 classes
     the character table:

       E     2C6   2C3   C2    3C2'  3C2'' i     2S3   2S6   s_h   3s_d  3s_v 
A_1g   1.00  1.00  1.00  1.00  1.00  1.00  1.00  1.00  1.00  1.00  1.00  1.00
A_2g   1.00  1.00  1.00  1.00 -1.00 -1.00  1.00  1.00  1.00  1.00 -1.00 -1.00
B_1g   1.00 -1.00  1.00 -1.00  1.00 -1.00  1.00 -1.00  1.00 -1.00  1.00 -1.00
B_2g   1.00 -1.00  1.00 -1.00 -1.00  1.00  1.00 -1.00  1.00 -1.00 -1.00  1.00
E_1g   2.00  1.00 -1.00 -2.00  0.00  0.00  2.00  1.00 -1.00 -2.00  0.00  0.00
E_2g   2.00 -1.00 -1.00  2.00  0.00  0.00  2.00 -1.00 -1.00  2.00  0.00  0.00
A_1u   1.00  1.00  1.00  1.00  1.00  1.00 -1.00 -1.00 -1.00 -1.00 -1.00 -1.00
A_2u   1.00  1.00  1.00  1.00 -1.00 -1.00 -1.00 -1.00 -1.00 -1.00  1.00  1.00
B_1u   1.00 -1.00  1.00 -1.00  1.00 -1.00 -1.00  1.00 -1.00  1.00 -1.00  1.00
B_2u   1.00 -1.00  1.00 -1.00 -1.00  1.00 -1.00  1.00 -1.00  1.00  1.00 -1.00
E_1u   2.00  1.00 -1.00 -2.00  0.00  0.00 -2.00 -1.00  1.00  2.00  0.00  0.00
E_2u   2.00 -1.00 -1.00  2.00  0.00  0.00 -2.00  1.00  1.00 -2.00  0.00  0.00

     the symmetry operations in each class and the name of the first element:

     E        1
          identity                                               
     2C6      5    6
           60 deg rotation - cryst. axis [0,0,1]                 
     2C3      7    8
          120 deg rotation - cryst. axis [0,0,1]                 
     C2       2
          180 deg rotation - cart. axis [0,0,1]                  
     3C2'     4   12   11
          180 deg rotation - cart. axis [1,0,0]                  
     3C2''    3    9   10
          180 deg rotation - cart. axis [0,1,0]                  
     i       13
          inversion                                              
     2S3     17   18
          inv.  60 deg rotation - cryst. axis [0,0,1]            
     2S6     19   20
          inv. 120 deg rotation - cryst. axis [0,0,1]            
     s_h     14
          inv. 180 deg rotation - cart. axis [0,0,1]             
     3s_d    16   24   23
          inv. 180 deg rotation - cart. axis [1,0,0]             
     3s_v    15   21   22
          inv. 180 deg rotation - cart. axis [0,1,0]             

   Cartesian axes

     site n.     atom                  positions (alat units)
         1           C   tau(   1) = (   0.0000000   0.0000000   2.0264246  )
         2           C   tau(   2) = (  -0.0000000   0.5773503   2.0264246  )

   Crystallographic axes

     site n.     atom                  positions (cryst. coord.)
         1           C   tau(   1) = (  0.0000000  0.0000000  0.2500000  )
         2           C   tau(   2) = (  0.3333333  0.6666667  0.2500000  )

     number of k points=   217  Gaussian smearing, width (Ry)=  0.0010
                       cart. coord. in units 2pi/alat
        k(    1) = (   0.0000000   0.0000000   0.0000000), wk =   0.0008681
        k(    2) = (   0.0000000   0.0240563   0.0000000), wk =   0.0052083
        k(    3) = (   0.0000000   0.0481125   0.0000000), wk =   0.0052083
        k(    4) = (   0.0000000   0.0721688   0.0000000), wk =   0.0052083
        k(    5) = (   0.0000000   0.0962250   0.0000000), wk =   0.0052083
        k(    6) = (   0.0000000   0.1202813   0.0000000), wk =   0.0052083
        k(    7) = (   0.0000000   0.1443376   0.0000000), wk =   0.0052083
        k(    8) = (   0.0000000   0.1683938   0.0000000), wk =   0.0052083
        k(    9) = (   0.0000000   0.1924501   0.0000000), wk =   0.0052083
        k(   10) = (   0.0000000   0.2165064   0.0000000), wk =   0.0052083
        k(   11) = (   0.0000000   0.2405626   0.0000000), wk =   0.0052083
        k(   12) = (   0.0000000   0.2646189   0.0000000), wk =   0.0052083
        k(   13) = (   0.0000000   0.2886751   0.0000000), wk =   0.0052083
        k(   14) = (   0.0000000   0.3127314   0.0000000), wk =   0.0052083
        k(   15) = (   0.0000000   0.3367877   0.0000000), wk =   0.0052083
        k(   16) = (   0.0000000   0.3608439   0.0000000), wk =   0.0052083
        k(   17) = (   0.0000000   0.3849002   0.0000000), wk =   0.0052083
        k(   18) = (   0.0000000   0.4089564   0.0000000), wk =   0.0052083
        k(   19) = (   0.0000000   0.4330127   0.0000000), wk =   0.0052083
        k(   20) = (   0.0000000   0.4570690   0.0000000), wk =   0.0052083
        k(   21) = (   0.0000000   0.4811252   0.0000000), wk =   0.0052083
        k(   22) = (   0.0000000   0.5051815   0.0000000), wk =   0.0052083
        k(   23) = (   0.0000000   0.5292377   0.0000000), wk =   0.0052083
        k(   24) = (   0.0000000   0.5532940   0.0000000), wk =   0.0052083
        k(   25) = (   0.0000000  -0.5773503   0.0000000), wk =   0.0026042
        k(   26) = (   0.0208333   0.0360844   0.0000000), wk =   0.0052083
        k(   27) = (   0.0208333   0.0601407   0.0000000), wk =   0.0104167
        k(   28) = (   0.0208333   0.0841969   0.0000000), wk =   0.0104167
        k(   29) = (   0.0208333   0.1082532   0.0000000), wk =   0.0104167
        k(   30) = (   0.0208333   0.1323094   0.0000000), wk =   0.0104167
        k(   31) = (   0.0208333   0.1563657   0.0000000), wk =   0.0104167
        k(   32) = (   0.0208333   0.1804220   0.0000000), wk =   0.0104167
        k(   33) = (   0.0208333   0.2044782   0.0000000), wk =   0.0104167
        k(   34) = (   0.0208333   0.2285345   0.0000000), wk =   0.0104167
        k(   35) = (   0.0208333   0.2525907   0.0000000), wk =   0.0104167
        k(   36) = (   0.0208333   0.2766470   0.0000000), wk =   0.0104167
        k(   37) = (   0.0208333   0.3007033   0.0000000), wk =   0.0104167
        k(   38) = (   0.0208333   0.3247595   0.0000000), wk =   0.0104167
        k(   39) = (   0.0208333   0.3488158   0.0000000), wk =   0.0104167
        k(   40) = (   0.0208333   0.3728720   0.0000000), wk =   0.0104167
        k(   41) = (   0.0208333   0.3969283   0.0000000), wk =   0.0104167
        k(   42) = (   0.0208333   0.4209846   0.0000000), wk =   0.0104167
        k(   43) = (   0.0208333   0.4450408   0.0000000), wk =   0.0104167
        k(   44) = (   0.0208333   0.4690971   0.0000000), wk =   0.0104167
        k(   45) = (   0.0208333   0.4931534   0.0000000), wk =   0.0104167
        k(   46) = (   0.0208333   0.5172096   0.0000000), wk =   0.0104167
        k(   47) = (   0.0208333   0.5412659   0.0000000), wk =   0.0104167
        k(   48) = (   0.0208333   0.5653221   0.0000000), wk =   0.0104167
        k(   49) = (   0.0416667   0.0721688   0.0000000), wk =   0.0052083
        k(   50) = (   0.0416667   0.0962250   0.0000000), wk =   0.0104167
        k(   51) = (   0.0416667   0.1202813   0.0000000), wk =   0.0104167
        k(   52) = (   0.0416667   0.1443376   0.0000000), wk =   0.0104167
        k(   53) = (   0.0416667   0.1683938   0.0000000), wk =   0.0104167
        k(   54) = (   0.0416667   0.1924501   0.0000000), wk =   0.0104167
        k(   55) = (   0.0416667   0.2165064   0.0000000), wk =   0.0104167
        k(   56) = (   0.0416667   0.2405626   0.0000000), wk =   0.0104167
        k(   57) = (   0.0416667   0.2646189   0.0000000), wk =   0.0104167
        k(   58) = (   0.0416667   0.2886751   0.0000000), wk =   0.0104167
        k(   59) = (   0.0416667   0.3127314   0.0000000), wk =   0.0104167
        k(   60) = (   0.0416667   0.3367877   0.0000000), wk =   0.0104167
        k(   61) = (   0.0416667   0.3608439   0.0000000), wk =   0.0104167
        k(   62) = (   0.0416667   0.3849002   0.0000000), wk =   0.0104167
        k(   63) = (   0.0416667   0.4089564   0.0000000), wk =   0.0104167
        k(   64) = (   0.0416667   0.4330127   0.0000000), wk =   0.0104167
        k(   65) = (   0.0416667   0.4570690   0.0000000), wk =   0.0104167
        k(   66) = (   0.0416667   0.4811252   0.0000000), wk =   0.0104167
        k(   67) = (   0.0416667   0.5051815   0.0000000), wk =   0.0104167
        k(   68) = (   0.0416667   0.5292377   0.0000000), wk =   0.0104167
        k(   69) = (   0.0416667   0.5532940   0.0000000), wk =   0.0104167
        k(   70) = (   0.0416667   0.5773503   0.0000000), wk =   0.0052083
        k(   71) = (   0.0625000   0.1082532   0.0000000), wk =   0.0052083
        k(   72) = (   0.0625000   0.1323094   0.0000000), wk =   0.0104167
        k(   73) = (   0.0625000   0.1563657   0.0000000), wk =   0.0104167
        k(   74) = (   0.0625000   0.1804220   0.0000000), wk =   0.0104167
        k(   75) = (   0.0625000   0.2044782   0.0000000), wk =   0.0104167
        k(   76) = (   0.0625000   0.2285345   0.0000000), wk =   0.0104167
        k(   77) = (   0.0625000   0.2525907   0.0000000), wk =   0.0104167
        k(   78) = (   0.0625000   0.2766470   0.0000000), wk =   0.0104167
        k(   79) = (   0.0625000   0.3007033   0.0000000), wk =   0.0104167
        k(   80) = (   0.0625000   0.3247595   0.0000000), wk =   0.0104167
        k(   81) = (   0.0625000   0.3488158   0.0000000), wk =   0.0104167
        k(   82) = (   0.0625000   0.3728720   0.0000000), wk =   0.0104167
        k(   83) = (   0.0625000   0.3969283   0.0000000), wk =   0.0104167
        k(   84) = (   0.0625000   0.4209846   0.0000000), wk =   0.0104167
        k(   85) = (   0.0625000   0.4450408   0.0000000), wk =   0.0104167
        k(   86) = (   0.0625000   0.4690971   0.0000000), wk =   0.0104167
        k(   87) = (   0.0625000   0.4931534   0.0000000), wk =   0.0104167
        k(   88) = (   0.0625000   0.5172096   0.0000000), wk =   0.0104167
        k(   89) = (   0.0625000   0.5412659   0.0000000), wk =   0.0104167
        k(   90) = (   0.0625000   0.5653221   0.0000000), wk =   0.0104167
        k(   91) = (   0.0833333   0.1443376   0.0000000), wk =   0.0052083
        k(   92) = (   0.0833333   0.1683938   0.0000000), wk =   0.0104167
        k(   93) = (   0.0833333   0.1924501   0.0000000), wk =   0.0104167
        k(   94) = (   0.0833333   0.2165064   0.0000000), wk =   0.0104167
        k(   95) = (   0.0833333   0.2405626   0.0000000), wk =   0.0104167
        k(   96) = (   0.0833333   0.2646189   0.0000000), wk =   0.0104167
        k(   97) = (   0.0833333   0.2886751   0.0000000), wk =   0.0104167
        k(   98) = (   0.0833333   0.3127314   0.0000000), wk =   0.0104167
        k(   99) = (   0.0833333   0.3367877   0.0000000), wk =   0.0104167
        k(  100) = (   0.0833333   0.3608439   0.0000000), wk =   0.0104167
        k(  101) = (   0.0833333   0.3849002   0.0000000), wk =   0.0104167
        k(  102) = (   0.0833333   0.4089564   0.0000000), wk =   0.0104167
        k(  103) = (   0.0833333   0.4330127   0.0000000), wk =   0.0104167
        k(  104) = (   0.0833333   0.4570690   0.0000000), wk =   0.0104167
        k(  105) = (   0.0833333   0.4811252   0.0000000), wk =   0.0104167
        k(  106) = (   0.0833333   0.5051815   0.0000000), wk =   0.0104167
        k(  107) = (   0.0833333   0.5292377   0.0000000), wk =   0.0104167
        k(  108) = (   0.0833333   0.5532940   0.0000000), wk =   0.0104167
        k(  109) = (   0.0833333   0.5773503   0.0000000), wk =   0.0052083
        k(  110) = (   0.1041667   0.1804220   0.0000000), wk =   0.0052083
        k(  111) = (   0.1041667   0.2044782   0.0000000), wk =   0.0104167
        k(  112) = (   0.1041667   0.2285345   0.0000000), wk =   0.0104167
        k(  113) = (   0.1041667   0.2525907   0.0000000), wk =   0.0104167
        k(  114) = (   0.1041667   0.2766470   0.0000000), wk =   0.0104167
        k(  115) = (   0.1041667   0.3007033   0.0000000), wk =   0.0104167
        k(  116) = (   0.1041667   0.3247595   0.0000000), wk =   0.0104167
        k(  117) = (   0.1041667   0.3488158   0.0000000), wk =   0.0104167
        k(  118) = (   0.1041667   0.3728720   0.0000000), wk =   0.0104167
        k(  119) = (   0.1041667   0.3969283   0.0000000), wk =   0.0104167
        k(  120) = (   0.1041667   0.4209846   0.0000000), wk =   0.0104167
        k(  121) = (   0.1041667   0.4450408   0.0000000), wk =   0.0104167
        k(  122) = (   0.1041667   0.4690971   0.0000000), wk =   0.0104167
        k(  123) = (   0.1041667   0.4931534   0.0000000), wk =   0.0104167
        k(  124) = (   0.1041667   0.5172096   0.0000000), wk =   0.0104167
        k(  125) = (   0.1041667   0.5412659   0.0000000), wk =   0.0104167
        k(  126) = (   0.1041667   0.5653221   0.0000000), wk =   0.0104167
        k(  127) = (   0.1250000   0.2165064   0.0000000), wk =   0.0052083
        k(  128) = (   0.1250000   0.2405626   0.0000000), wk =   0.0104167
        k(  129) = (   0.1250000   0.2646189   0.0000000), wk =   0.0104167
        k(  130) = (   0.1250000   0.2886751   0.0000000), wk =   0.0104167
        k(  131) = (   0.1250000   0.3127314   0.0000000), wk =   0.0104167
        k(  132) = (   0.1250000   0.3367877   0.0000000), wk =   0.0104167
        k(  133) = (   0.1250000   0.3608439   0.0000000), wk =   0.0104167
        k(  134) = (   0.1250000   0.3849002   0.0000000), wk =   0.0104167
        k(  135) = (   0.1250000   0.4089564   0.0000000), wk =   0.0104167
        k(  136) = (   0.1250000   0.4330127   0.0000000), wk =   0.0104167
        k(  137) = (   0.1250000   0.4570690   0.0000000), wk =   0.0104167
        k(  138) = (   0.1250000   0.4811252   0.0000000), wk =   0.0104167
        k(  139) = (   0.1250000   0.5051815   0.0000000), wk =   0.0104167
        k(  140) = (   0.1250000   0.5292377   0.0000000), wk =   0.0104167
        k(  141) = (   0.1250000   0.5532940   0.0000000), wk =   0.0104167
        k(  142) = (   0.1250000   0.5773503   0.0000000), wk =   0.0052083
        k(  143) = (   0.1458333   0.2525907   0.0000000), wk =   0.0052083
        k(  144) = (   0.1458333   0.2766470   0.0000000), wk =   0.0104167
        k(  145) = (   0.1458333   0.3007033   0.0000000), wk =   0.0104167
        k(  146) = (   0.1458333   0.3247595   0.0000000), wk =   0.0104167
        k(  147) = (   0.1458333   0.3488158   0.0000000), wk =   0.0104167
        k(  148) = (   0.1458333   0.3728720   0.0000000), wk =   0.0104167
        k(  149) = (   0.1458333   0.3969283   0.0000000), wk =   0.0104167
        k(  150) = (   0.1458333   0.4209846   0.0000000), wk =   0.0104167
        k(  151) = (   0.1458333   0.4450408   0.0000000), wk =   0.0104167
        k(  152) = (   0.1458333   0.4690971   0.0000000), wk =   0.0104167
        k(  153) = (   0.1458333   0.4931534   0.0000000), wk =   0.0104167
        k(  154) = (   0.1458333   0.5172096   0.0000000), wk =   0.0104167
        k(  155) = (   0.1458333   0.5412659   0.0000000), wk =   0.0104167
        k(  156) = (   0.1458333   0.5653221   0.0000000), wk =   0.0104167
        k(  157) = (   0.1666667   0.2886751   0.0000000), wk =   0.0052083
        k(  158) = (   0.1666667   0.3127314   0.0000000), wk =   0.0104167
        k(  159) = (   0.1666667   0.3367877   0.0000000), wk =   0.0104167
        k(  160) = (   0.1666667   0.3608439   0.0000000), wk =   0.0104167
        k(  161) = (   0.1666667   0.3849002   0.0000000), wk =   0.0104167
        k(  162) = (   0.1666667   0.4089564   0.0000000), wk =   0.0104167
        k(  163) = (   0.1666667   0.4330127   0.0000000), wk =   0.0104167
        k(  164) = (   0.1666667   0.4570690   0.0000000), wk =   0.0104167
        k(  165) = (   0.1666667   0.4811252   0.0000000), wk =   0.0104167
        k(  166) = (   0.1666667   0.5051815   0.0000000), wk =   0.0104167
        k(  167) = (   0.1666667   0.5292377   0.0000000), wk =   0.0104167
        k(  168) = (   0.1666667   0.5532940   0.0000000), wk =   0.0104167
        k(  169) = (   0.1666667   0.5773503   0.0000000), wk =   0.0052083
        k(  170) = (   0.1875000   0.3247595   0.0000000), wk =   0.0052083
        k(  171) = (   0.1875000   0.3488158   0.0000000), wk =   0.0104167
        k(  172) = (   0.1875000   0.3728720   0.0000000), wk =   0.0104167
        k(  173) = (   0.1875000   0.3969283   0.0000000), wk =   0.0104167
        k(  174) = (   0.1875000   0.4209846   0.0000000), wk =   0.0104167
        k(  175) = (   0.1875000   0.4450408   0.0000000), wk =   0.0104167
        k(  176) = (   0.1875000   0.4690971   0.0000000), wk =   0.0104167
        k(  177) = (   0.1875000   0.4931534   0.0000000), wk =   0.0104167
        k(  178) = (   0.1875000   0.5172096   0.0000000), wk =   0.0104167
        k(  179) = (   0.1875000   0.5412659   0.0000000), wk =   0.0104167
        k(  180) = (   0.1875000   0.5653221   0.0000000), wk =   0.0104167
        k(  181) = (   0.2083333   0.3608439   0.0000000), wk =   0.0052083
        k(  182) = (   0.2083333   0.3849002   0.0000000), wk =   0.0104167
        k(  183) = (   0.2083333   0.4089564   0.0000000), wk =   0.0104167
        k(  184) = (   0.2083333   0.4330127   0.0000000), wk =   0.0104167
        k(  185) = (   0.2083333   0.4570690   0.0000000), wk =   0.0104167
        k(  186) = (   0.2083333   0.4811252   0.0000000), wk =   0.0104167
        k(  187) = (   0.2083333   0.5051815   0.0000000), wk =   0.0104167
        k(  188) = (   0.2083333   0.5292377   0.0000000), wk =   0.0104167
        k(  189) = (   0.2083333   0.5532940   0.0000000), wk =   0.0104167
        k(  190) = (   0.2083333   0.5773503   0.0000000), wk =   0.0052083
        k(  191) = (   0.2291667   0.3969283   0.0000000), wk =   0.0052083
        k(  192) = (   0.2291667   0.4209846   0.0000000), wk =   0.0104167
        k(  193) = (   0.2291667   0.4450408   0.0000000), wk =   0.0104167
        k(  194) = (   0.2291667   0.4690971   0.0000000), wk =   0.0104167
        k(  195) = (   0.2291667   0.4931534   0.0000000), wk =   0.0104167
        k(  196) = (   0.2291667   0.5172096   0.0000000), wk =   0.0104167
        k(  197) = (   0.2291667   0.5412659   0.0000000), wk =   0.0104167
        k(  198) = (   0.2291667   0.5653221   0.0000000), wk =   0.0104167
        k(  199) = (   0.2500000   0.4330127   0.0000000), wk =   0.0052083
        k(  200) = (   0.2500000   0.4570690   0.0000000), wk =   0.0104167
        k(  201) = (   0.2500000   0.4811252   0.0000000), wk =   0.0104167
        k(  202) = (   0.2500000   0.5051815   0.0000000), wk =   0.0104167
        k(  203) = (   0.2500000   0.5292377   0.0000000), wk =   0.0104167
        k(  204) = (   0.2500000   0.5532940   0.0000000), wk =   0.0104167
        k(  205) = (   0.2500000   0.5773503   0.0000000), wk =   0.0052083
        k(  206) = (   0.2708333   0.4690971   0.0000000), wk =   0.0052083
        k(  207) = (   0.2708333   0.4931534   0.0000000), wk =   0.0104167
        k(  208) = (   0.2708333   0.5172096   0.0000000), wk =   0.0104167
        k(  209) = (   0.2708333   0.5412659   0.0000000), wk =   0.0104167
        k(  210) = (   0.2708333   0.5653221   0.0000000), wk =   0.0104167
        k(  211) = (   0.2916667   0.5051815   0.0000000), wk =   0.0052083
        k(  212) = (   0.2916667   0.5292377   0.0000000), wk =   0.0104167
        k(  213) = (   0.2916667   0.5532940   0.0000000), wk =   0.0104167
        k(  214) = (   0.2916667   0.5773503   0.0000000), wk =   0.0052083
        k(  215) = (   0.3125000   0.5412659   0.0000000), wk =   0.0052083
        k(  216) = (   0.3125000   0.5653221   0.0000000), wk =   0.0104167
        k(  217) = (   0.3333333   0.5773503   0.0000000), wk =   0.0017361

                       cryst. coord.
        k(    1) = (   0.0000000   0.0000000   0.0000000), wk =   0.0008681
        k(    2) = (   0.0000000   0.0208333   0.0000000), wk =   0.0052083
        k(    3) = (   0.0000000   0.0416667   0.0000000), wk =   0.0052083
        k(    4) = (   0.0000000   0.0625000   0.0000000), wk =   0.0052083
        k(    5) = (   0.0000000   0.0833333   0.0000000), wk =   0.0052083
        k(    6) = (   0.0000000   0.1041667   0.0000000), wk =   0.0052083
        k(    7) = (   0.0000000   0.1250000   0.0000000), wk =   0.0052083
        k(    8) = (   0.0000000   0.1458333   0.0000000), wk =   0.0052083
        k(    9) = (   0.0000000   0.1666667   0.0000000), wk =   0.0052083
        k(   10) = (   0.0000000   0.1875000   0.0000000), wk =   0.0052083
        k(   11) = (   0.0000000   0.2083333   0.0000000), wk =   0.0052083
        k(   12) = (   0.0000000   0.2291667   0.0000000), wk =   0.0052083
        k(   13) = (   0.0000000   0.2500000   0.0000000), wk =   0.0052083
        k(   14) = (   0.0000000   0.2708333   0.0000000), wk =   0.0052083
        k(   15) = (   0.0000000   0.2916667   0.0000000), wk =   0.0052083
        k(   16) = (   0.0000000   0.3125000   0.0000000), wk =   0.0052083
        k(   17) = (   0.0000000   0.3333333   0.0000000), wk =   0.0052083
        k(   18) = (   0.0000000   0.3541667   0.0000000), wk =   0.0052083
        k(   19) = (   0.0000000   0.3750000   0.0000000), wk =   0.0052083
        k(   20) = (   0.0000000   0.3958333   0.0000000), wk =   0.0052083
        k(   21) = (   0.0000000   0.4166667   0.0000000), wk =   0.0052083
        k(   22) = (   0.0000000   0.4375000   0.0000000), wk =   0.0052083
        k(   23) = (   0.0000000   0.4583333   0.0000000), wk =   0.0052083
        k(   24) = (   0.0000000   0.4791667   0.0000000), wk =   0.0052083
        k(   25) = (   0.0000000  -0.5000000   0.0000000), wk =   0.0026042
        k(   26) = (   0.0208333   0.0208333   0.0000000), wk =   0.0052083
        k(   27) = (   0.0208333   0.0416667   0.0000000), wk =   0.0104167
        k(   28) = (   0.0208333   0.0625000   0.0000000), wk =   0.0104167
        k(   29) = (   0.0208333   0.0833333   0.0000000), wk =   0.0104167
        k(   30) = (   0.0208333   0.1041667   0.0000000), wk =   0.0104167
        k(   31) = (   0.0208333   0.1250000   0.0000000), wk =   0.0104167
        k(   32) = (   0.0208333   0.1458333   0.0000000), wk =   0.0104167
        k(   33) = (   0.0208333   0.1666667   0.0000000), wk =   0.0104167
        k(   34) = (   0.0208333   0.1875000   0.0000000), wk =   0.0104167
        k(   35) = (   0.0208333   0.2083333   0.0000000), wk =   0.0104167
        k(   36) = (   0.0208333   0.2291667   0.0000000), wk =   0.0104167
        k(   37) = (   0.0208333   0.2500000   0.0000000), wk =   0.0104167
        k(   38) = (   0.0208333   0.2708333   0.0000000), wk =   0.0104167
        k(   39) = (   0.0208333   0.2916667   0.0000000), wk =   0.0104167
        k(   40) = (   0.0208333   0.3125000   0.0000000), wk =   0.0104167
        k(   41) = (   0.0208333   0.3333333   0.0000000), wk =   0.0104167
        k(   42) = (   0.0208333   0.3541667   0.0000000), wk =   0.0104167
        k(   43) = (   0.0208333   0.3750000   0.0000000), wk =   0.0104167
        k(   44) = (   0.0208333   0.3958333   0.0000000), wk =   0.0104167
        k(   45) = (   0.0208333   0.4166667   0.0000000), wk =   0.0104167
        k(   46) = (   0.0208333   0.4375000   0.0000000), wk =   0.0104167
        k(   47) = (   0.0208333   0.4583333   0.0000000), wk =   0.0104167
        k(   48) = (   0.0208333   0.4791667   0.0000000), wk =   0.0104167
        k(   49) = (   0.0416667   0.0416667   0.0000000), wk =   0.0052083
        k(   50) = (   0.0416667   0.0625000   0.0000000), wk =   0.0104167
        k(   51) = (   0.0416667   0.0833333   0.0000000), wk =   0.0104167
        k(   52) = (   0.0416667   0.1041667   0.0000000), wk =   0.0104167
        k(   53) = (   0.0416667   0.1250000   0.0000000), wk =   0.0104167
        k(   54) = (   0.0416667   0.1458333   0.0000000), wk =   0.0104167
        k(   55) = (   0.0416667   0.1666667   0.0000000), wk =   0.0104167
        k(   56) = (   0.0416667   0.1875000   0.0000000), wk =   0.0104167
        k(   57) = (   0.0416667   0.2083333   0.0000000), wk =   0.0104167
        k(   58) = (   0.0416667   0.2291667   0.0000000), wk =   0.0104167
        k(   59) = (   0.0416667   0.2500000   0.0000000), wk =   0.0104167
        k(   60) = (   0.0416667   0.2708333   0.0000000), wk =   0.0104167
        k(   61) = (   0.0416667   0.2916667   0.0000000), wk =   0.0104167
        k(   62) = (   0.0416667   0.3125000   0.0000000), wk =   0.0104167
        k(   63) = (   0.0416667   0.3333333   0.0000000), wk =   0.0104167
        k(   64) = (   0.0416667   0.3541667   0.0000000), wk =   0.0104167
        k(   65) = (   0.0416667   0.3750000   0.0000000), wk =   0.0104167
        k(   66) = (   0.0416667   0.3958333   0.0000000), wk =   0.0104167
        k(   67) = (   0.0416667   0.4166667   0.0000000), wk =   0.0104167
        k(   68) = (   0.0416667   0.4375000   0.0000000), wk =   0.0104167
        k(   69) = (   0.0416667   0.4583333   0.0000000), wk =   0.0104167
        k(   70) = (   0.0416667   0.4791667   0.0000000), wk =   0.0052083
        k(   71) = (   0.0625000   0.0625000   0.0000000), wk =   0.0052083
        k(   72) = (   0.0625000   0.0833333   0.0000000), wk =   0.0104167
        k(   73) = (   0.0625000   0.1041667   0.0000000), wk =   0.0104167
        k(   74) = (   0.0625000   0.1250000   0.0000000), wk =   0.0104167
        k(   75) = (   0.0625000   0.1458333   0.0000000), wk =   0.0104167
        k(   76) = (   0.0625000   0.1666667   0.0000000), wk =   0.0104167
        k(   77) = (   0.0625000   0.1875000   0.0000000), wk =   0.0104167
        k(   78) = (   0.0625000   0.2083333   0.0000000), wk =   0.0104167
        k(   79) = (   0.0625000   0.2291667   0.0000000), wk =   0.0104167
        k(   80) = (   0.0625000   0.2500000   0.0000000), wk =   0.0104167
        k(   81) = (   0.0625000   0.2708333   0.0000000), wk =   0.0104167
        k(   82) = (   0.0625000   0.2916667   0.0000000), wk =   0.0104167
        k(   83) = (   0.0625000   0.3125000   0.0000000), wk =   0.0104167
        k(   84) = (   0.0625000   0.3333333   0.0000000), wk =   0.0104167
        k(   85) = (   0.0625000   0.3541667   0.0000000), wk =   0.0104167
        k(   86) = (   0.0625000   0.3750000   0.0000000), wk =   0.0104167
        k(   87) = (   0.0625000   0.3958333   0.0000000), wk =   0.0104167
        k(   88) = (   0.0625000   0.4166667   0.0000000), wk =   0.0104167
        k(   89) = (   0.0625000   0.4375000   0.0000000), wk =   0.0104167
        k(   90) = (   0.0625000   0.4583333   0.0000000), wk =   0.0104167
        k(   91) = (   0.0833333   0.0833333   0.0000000), wk =   0.0052083
        k(   92) = (   0.0833333   0.1041667   0.0000000), wk =   0.0104167
        k(   93) = (   0.0833333   0.1250000   0.0000000), wk =   0.0104167
        k(   94) = (   0.0833333   0.1458333   0.0000000), wk =   0.0104167
        k(   95) = (   0.0833333   0.1666667   0.0000000), wk =   0.0104167
        k(   96) = (   0.0833333   0.1875000   0.0000000), wk =   0.0104167
        k(   97) = (   0.0833333   0.2083333   0.0000000), wk =   0.0104167
        k(   98) = (   0.0833333   0.2291667   0.0000000), wk =   0.0104167
        k(   99) = (   0.0833333   0.2500000   0.0000000), wk =   0.0104167
        k(  100) = (   0.0833333   0.2708333   0.0000000), wk =   0.0104167
        k(  101) = (   0.0833333   0.2916667   0.0000000), wk =   0.0104167
        k(  102) = (   0.0833333   0.3125000   0.0000000), wk =   0.0104167
        k(  103) = (   0.0833333   0.3333333   0.0000000), wk =   0.0104167
        k(  104) = (   0.0833333   0.3541667   0.0000000), wk =   0.0104167
        k(  105) = (   0.0833333   0.3750000   0.0000000), wk =   0.0104167
        k(  106) = (   0.0833333   0.3958333   0.0000000), wk =   0.0104167
        k(  107) = (   0.0833333   0.4166667   0.0000000), wk =   0.0104167
        k(  108) = (   0.0833333   0.4375000   0.0000000), wk =   0.0104167
        k(  109) = (   0.0833333   0.4583333   0.0000000), wk =   0.0052083
        k(  110) = (   0.1041667   0.1041667   0.0000000), wk =   0.0052083
        k(  111) = (   0.1041667   0.1250000   0.0000000), wk =   0.0104167
        k(  112) = (   0.1041667   0.1458333   0.0000000), wk =   0.0104167
        k(  113) = (   0.1041667   0.1666667   0.0000000), wk =   0.0104167
        k(  114) = (   0.1041667   0.1875000   0.0000000), wk =   0.0104167
        k(  115) = (   0.1041667   0.2083333   0.0000000), wk =   0.0104167
        k(  116) = (   0.1041667   0.2291667   0.0000000), wk =   0.0104167
        k(  117) = (   0.1041667   0.2500000   0.0000000), wk =   0.0104167
        k(  118) = (   0.1041667   0.2708333   0.0000000), wk =   0.0104167
        k(  119) = (   0.1041667   0.2916667   0.0000000), wk =   0.0104167
        k(  120) = (   0.1041667   0.3125000   0.0000000), wk =   0.0104167
        k(  121) = (   0.1041667   0.3333333   0.0000000), wk =   0.0104167
        k(  122) = (   0.1041667   0.3541667   0.0000000), wk =   0.0104167
        k(  123) = (   0.1041667   0.3750000   0.0000000), wk =   0.0104167
        k(  124) = (   0.1041667   0.3958333   0.0000000), wk =   0.0104167
        k(  125) = (   0.1041667   0.4166667   0.0000000), wk =   0.0104167
        k(  126) = (   0.1041667   0.4375000   0.0000000), wk =   0.0104167
        k(  127) = (   0.1250000   0.1250000   0.0000000), wk =   0.0052083
        k(  128) = (   0.1250000   0.1458333   0.0000000), wk =   0.0104167
        k(  129) = (   0.1250000   0.1666667   0.0000000), wk =   0.0104167
        k(  130) = (   0.1250000   0.1875000   0.0000000), wk =   0.0104167
        k(  131) = (   0.1250000   0.2083333   0.0000000), wk =   0.0104167
        k(  132) = (   0.1250000   0.2291667   0.0000000), wk =   0.0104167
        k(  133) = (   0.1250000   0.2500000   0.0000000), wk =   0.0104167
        k(  134) = (   0.1250000   0.2708333   0.0000000), wk =   0.0104167
        k(  135) = (   0.1250000   0.2916667   0.0000000), wk =   0.0104167
        k(  136) = (   0.1250000   0.3125000   0.0000000), wk =   0.0104167
        k(  137) = (   0.1250000   0.3333333   0.0000000), wk =   0.0104167
        k(  138) = (   0.1250000   0.3541667   0.0000000), wk =   0.0104167
        k(  139) = (   0.1250000   0.3750000   0.0000000), wk =   0.0104167
        k(  140) = (   0.1250000   0.3958333   0.0000000), wk =   0.0104167
        k(  141) = (   0.1250000   0.4166667   0.0000000), wk =   0.0104167
        k(  142) = (   0.1250000   0.4375000   0.0000000), wk =   0.0052083
        k(  143) = (   0.1458333   0.1458333   0.0000000), wk =   0.0052083
        k(  144) = (   0.1458333   0.1666667   0.0000000), wk =   0.0104167
        k(  145) = (   0.1458333   0.1875000   0.0000000), wk =   0.0104167
        k(  146) = (   0.1458333   0.2083333   0.0000000), wk =   0.0104167
        k(  147) = (   0.1458333   0.2291667   0.0000000), wk =   0.0104167
        k(  148) = (   0.1458333   0.2500000   0.0000000), wk =   0.0104167
        k(  149) = (   0.1458333   0.2708333   0.0000000), wk =   0.0104167
        k(  150) = (   0.1458333   0.2916667   0.0000000), wk =   0.0104167
        k(  151) = (   0.1458333   0.3125000   0.0000000), wk =   0.0104167
        k(  152) = (   0.1458333   0.3333333   0.0000000), wk =   0.0104167
        k(  153) = (   0.1458333   0.3541667   0.0000000), wk =   0.0104167
        k(  154) = (   0.1458333   0.3750000   0.0000000), wk =   0.0104167
        k(  155) = (   0.1458333   0.3958333   0.0000000), wk =   0.0104167
        k(  156) = (   0.1458333   0.4166667   0.0000000), wk =   0.0104167
        k(  157) = (   0.1666667   0.1666667   0.0000000), wk =   0.0052083
        k(  158) = (   0.1666667   0.1875000   0.0000000), wk =   0.0104167
        k(  159) = (   0.1666667   0.2083333   0.0000000), wk =   0.0104167
        k(  160) = (   0.1666667   0.2291667   0.0000000), wk =   0.0104167
        k(  161) = (   0.1666667   0.2500000   0.0000000), wk =   0.0104167
        k(  162) = (   0.1666667   0.2708333   0.0000000), wk =   0.0104167
        k(  163) = (   0.1666667   0.2916667   0.0000000), wk =   0.0104167
        k(  164) = (   0.1666667   0.3125000   0.0000000), wk =   0.0104167
        k(  165) = (   0.1666667   0.3333333   0.0000000), wk =   0.0104167
        k(  166) = (   0.1666667   0.3541667   0.0000000), wk =   0.0104167
        k(  167) = (   0.1666667   0.3750000   0.0000000), wk =   0.0104167
        k(  168) = (   0.1666667   0.3958333   0.0000000), wk =   0.0104167
        k(  169) = (   0.1666667   0.4166667   0.0000000), wk =   0.0052083
        k(  170) = (   0.1875000   0.1875000   0.0000000), wk =   0.0052083
        k(  171) = (   0.1875000   0.2083333   0.0000000), wk =   0.0104167
        k(  172) = (   0.1875000   0.2291667   0.0000000), wk =   0.0104167
        k(  173) = (   0.1875000   0.2500000   0.0000000), wk =   0.0104167
        k(  174) = (   0.1875000   0.2708333   0.0000000), wk =   0.0104167
        k(  175) = (   0.1875000   0.2916667   0.0000000), wk =   0.0104167
        k(  176) = (   0.1875000   0.3125000   0.0000000), wk =   0.0104167
        k(  177) = (   0.1875000   0.3333333   0.0000000), wk =   0.0104167
        k(  178) = (   0.1875000   0.3541667   0.0000000), wk =   0.0104167
        k(  179) = (   0.1875000   0.3750000   0.0000000), wk =   0.0104167
        k(  180) = (   0.1875000   0.3958333   0.0000000), wk =   0.0104167
        k(  181) = (   0.2083333   0.2083333   0.0000000), wk =   0.0052083
        k(  182) = (   0.2083333   0.2291667   0.0000000), wk =   0.0104167
        k(  183) = (   0.2083333   0.2500000   0.0000000), wk =   0.0104167
        k(  184) = (   0.2083333   0.2708333   0.0000000), wk =   0.0104167
        k(  185) = (   0.2083333   0.2916667   0.0000000), wk =   0.0104167
        k(  186) = (   0.2083333   0.3125000   0.0000000), wk =   0.0104167
        k(  187) = (   0.2083333   0.3333333   0.0000000), wk =   0.0104167
        k(  188) = (   0.2083333   0.3541667   0.0000000), wk =   0.0104167
        k(  189) = (   0.2083333   0.3750000   0.0000000), wk =   0.0104167
        k(  190) = (   0.2083333   0.3958333   0.0000000), wk =   0.0052083
        k(  191) = (   0.2291667   0.2291667   0.0000000), wk =   0.0052083
        k(  192) = (   0.2291667   0.2500000   0.0000000), wk =   0.0104167
        k(  193) = (   0.2291667   0.2708333   0.0000000), wk =   0.0104167
        k(  194) = (   0.2291667   0.2916667   0.0000000), wk =   0.0104167
        k(  195) = (   0.2291667   0.3125000   0.0000000), wk =   0.0104167
        k(  196) = (   0.2291667   0.3333333   0.0000000), wk =   0.0104167
        k(  197) = (   0.2291667   0.3541667   0.0000000), wk =   0.0104167
        k(  198) = (   0.2291667   0.3750000   0.0000000), wk =   0.0104167
        k(  199) = (   0.2500000   0.2500000   0.0000000), wk =   0.0052083
        k(  200) = (   0.2500000   0.2708333   0.0000000), wk =   0.0104167
        k(  201) = (   0.2500000   0.2916667   0.0000000), wk =   0.0104167
        k(  202) = (   0.2500000   0.3125000   0.0000000), wk =   0.0104167
        k(  203) = (   0.2500000   0.3333333   0.0000000), wk =   0.0104167
        k(  204) = (   0.2500000   0.3541667   0.0000000), wk =   0.0104167
        k(  205) = (   0.2500000   0.3750000   0.0000000), wk =   0.0052083
        k(  206) = (   0.2708333   0.2708333   0.0000000), wk =   0.0052083
        k(  207) = (   0.2708333   0.2916667   0.0000000), wk =   0.0104167
        k(  208) = (   0.2708333   0.3125000   0.0000000), wk =   0.0104167
        k(  209) = (   0.2708333   0.3333333   0.0000000), wk =   0.0104167
        k(  210) = (   0.2708333   0.3541667   0.0000000), wk =   0.0104167
        k(  211) = (   0.2916667   0.2916667   0.0000000), wk =   0.0052083
        k(  212) = (   0.2916667   0.3125000   0.0000000), wk =   0.0104167
        k(  213) = (   0.2916667   0.3333333   0.0000000), wk =   0.0104167
        k(  214) = (   0.2916667   0.3541667   0.0000000), wk =   0.0052083
        k(  215) = (   0.3125000   0.3125000   0.0000000), wk =   0.0052083
        k(  216) = (   0.3125000   0.3333333   0.0000000), wk =   0.0104167
        k(  217) = (   0.3333333   0.3333333   0.0000000), wk =   0.0017361

     Dense  grid:    68705 G-vectors     FFT dimensions: (  27,  27, 216)

     Dynamical RAM for                 wfc:       0.07 MB

     Dynamical RAM for     wfc (w. buffer):      14.29 MB

     Dynamical RAM for           str. fact:       0.07 MB

     Dynamical RAM for           local pot:       0.00 MB

     Dynamical RAM for          nlocal pot:       0.13 MB

     Dynamical RAM for                qrad:       0.41 MB

     Dynamical RAM for          rho,v,vnew:       0.43 MB

     Dynamical RAM for               rhoin:       0.14 MB

     Dynamical RAM for            rho*nmix:       1.05 MB

     Dynamical RAM for           G-vectors:       0.28 MB

     Dynamical RAM for          h,s,v(r/c):       0.01 MB

     Dynamical RAM for          <psi|beta>:       0.00 MB

     Dynamical RAM for                 psi:       0.13 MB

     Dynamical RAM for                hpsi:       0.13 MB

     Dynamical RAM for                spsi:       0.13 MB

     Dynamical RAM for      wfcinit/wfcrot:       0.13 MB

     Dynamical RAM for           addusdens:       2.96 MB

     Dynamical RAM for          addusforce:       3.12 MB

     Dynamical RAM for         addusstress:       3.29 MB

     Estimated static dynamical RAM per process >      16.27 MB

     Estimated max dynamical RAM per process >      20.61 MB

     Estimated total dynamical RAM >     329.73 MB

     Check: negative core charge=   -0.000004

     Initial potential from superposition of free atoms

     starting charge       7.9999, renormalised to       8.0000

     negative rho (up, down):  4.163E-05 0.000E+00
     Starting wfcs are    8 randomized atomic wfcs
     Checking if some PAW data can be deallocated... 

     total cpu time spent up to now is        1.5 secs

     per-process dynamical memory:    27.8 Mb

     Self-consistent Calculation

     iteration #  1     ecut=    80.00 Ry     beta= 0.30
     Davidson diagonalization with overlap

---- Real-time Memory Report at c_bands before calling an iterative solver
            59 MiB given to the printing process from OS
            27 MiB allocation reported by mallinfo(arena+hblkhd)
        510092 MiB available memory on the node where the printing process lives
------------------
     ethr =  1.00E-02,  avg # of iterations =  5.8

     negative rho (up, down):  7.315E-05 0.000E+00

     total cpu time spent up to now is        5.4 secs

          k = 0.0000 0.0000 0.0000     band energies (ev):

   -26.1341 -13.2085 -10.4492 -10.4492   0.4014   1.4489   1.4570   1.5222

     occupation numbers 
     1.0000   1.0000   1.0000   1.0000   0.0000   0.0000   0.0000   0.0000

          k = 0.0000 0.0241 0.0000     band energies (ev):

   -26.1241 -13.1964 -10.4881 -10.4699   0.3982   1.4657   1.4913   1.5485

     occupation numbers 
     1.0000   1.0000   1.0000   1.0000   0.0000   0.0000   0.0000   0.0000

          k = 0.0000 0.0481 0.0000     band energies (ev):

   -26.0944 -13.1617 -10.6035 -10.5310   0.4568   1.4828   1.5810   1.6175

     occupation numbers 
     1.0000   1.0000   1.0000   1.0000   0.0000   0.0000   0.0000   0.0000

          k = 0.0000 0.0722 0.0000     band energies (ev):

   -26.0443 -13.0950 -10.7912 -10.6293   1.5282   1.7492   1.8255   4.3632

     occupation numbers 
     1.0000   1.0000   1.0000   1.0000   0.0000   0.0000   0.0000   0.0000

          k = 0.0000 0.0962 0.0000     band energies (ev):

   -25.9746 -13.0109 -11.0449 -10.7607   1.5717   2.0234   2.1093   4.2904

     occupation numbers 
     1.0000   1.0000   1.0000   1.0000   0.0000   0.0000   0.0000   0.0000

          k = 0.0000 0.1203 0.0000     band energies (ev):

   -25.8862 -12.9108 -11.3571 -10.9192   0.7056   1.5985   1.8369   2.4573

     occupation numbers 
     1.0000   1.0000   1.0000   1.0000   0.0000   0.0000   0.0000   0.0000

          k = 0.0000 0.1443 0.0000     band energies (ev):

   -25.7773 -12.7743 -11.7197 -11.0992   0.9383   1.6299   2.8725   3.7116

     occupation numbers 
     1.0000   1.0000   1.0000   1.0000   0.0000   0.0000   0.0000   0.0000

          k = 0.0000 0.1684 0.0000     band energies (ev):

   -25.6491 -12.6217 -12.1243 -11.2947   1.0446   1.6457   3.3435   3.3513

     occupation numbers 
     1.0000   1.0000   1.0000   1.0000   0.0000   0.0000   0.0000   0.0000

          k = 0.0000 0.1925 0.0000     band energies (ev):

   -25.5011 -12.5635 -12.4495 -11.5003   1.2201   1.6661   2.9397   3.8622

     occupation numbers 
     1.0000   1.0000   1.0000   1.0000   0.0000   0.0000   0.0000   0.0000

          k = 0.0000 0.2165 0.0000     band energies (ev):

   -25.3340 -13.0300 -12.2544 -11.7110   1.4523   1.7502   2.4954   4.4239

     occupation numbers 
     1.0000   1.0000   1.0000   1.0000   0.0000   0.0000   0.0000   0.0000

          k = 0.0000 0.2406 0.0000     band energies (ev):

   -25.1477 -13.5178 -12.0355 -11.9226   1.4891   1.9442   2.0354   5.0215

     occupation numbers 
     1.0000   1.0000   1.0000   1.0000   0.0000   0.0000   0.0000   0.0000

          k = 0.0000 0.2646 0.0000     band energies (ev):

   -24.9415 -14.0208 -12.1312 -11.7994   1.4656   1.5326   2.1259   5.6493

     occupation numbers 
     1.0000   1.0000   1.0000   1.0000   0.0000   0.0000   0.0000   0.0000

          k = 0.0000 0.2887 0.0000     band energies (ev):

   -24.7184 -14.5354 -12.3336 -11.5405   1.0281   1.4148   2.4136   6.3004

     occupation numbers 
     1.0000   1.0000   1.0000   1.0000   0.0000   0.0000   0.0000   0.0000

          k = 0.0000 0.3127 0.0000     band energies (ev):

   -24.4765 -15.0567 -12.5270 -11.2646   0.4987   1.3567   2.7236   4.2139

     occupation numbers 
     1.0000   1.0000   1.0000   1.0000   0.0000   0.0000   0.0000   0.0000

          k = 0.0000 0.3368 0.0000     band energies (ev):

   -24.2153 -15.5807 -12.7095 -10.9689  -0.0355   1.3010   3.0943   4.8573

     occupation numbers 
     1.0000   1.0000   1.0000   1.0000   0.0000   0.0000   0.0000   0.0000

          k = 0.0000 0.3608 0.0000     band energies (ev):

   -23.9366 -16.1043 -12.8792 -10.6578  -0.5737   1.2411   3.4925   8.3387

     occupation numbers 
     1.0000   1.0000   1.0000   1.0000   0.0000   0.0000   0.0000   0.0000

          k = 0.0000 0.3849 0.0000     band energies (ev):

   -23.6411 -16.6257 -13.0346 -10.3343  -1.1120   1.1821   3.8852   5.2325

     occupation numbers 
     1.0000   1.0000   1.0000   1.0000   0.0000   0.0000   0.0000   0.0000

          k = 0.0000 0.4090 0.0000     band energies (ev):

   -23.3281 -17.1413 -13.1741  -9.9998  -1.6405   1.1270   4.3303   5.9847

     occupation numbers 
     1.0000   1.0000   1.0000   1.0000   0.0000   0.0000   0.0000   0.0000

          k = 0.0000 0.4330 0.0000     band energies (ev):

   -22.9995 -17.6488 -13.2969  -9.6602  -2.1533   1.0767   4.7954   6.3578

     occupation numbers 
     1.0000   1.0000   1.0000   1.0000   0.0000   0.0000   0.0000   0.0000

          k = 0.0000 0.4571 0.0000     band energies (ev):

   -22.6563 -18.1452 -13.4021  -9.3226  -2.6410   1.0327   5.2724   7.3437

     occupation numbers 
     1.0000   1.0000   1.0000   1.0000   0.0000   0.0000   0.0000   0.0000

          k = 0.0000 0.4811 0.0000     band energies (ev):

   -22.3009 -18.6276 -13.4890  -8.9975  -3.0925   0.9951   5.7949   7.4625

     occupation numbers 
     1.0000   1.0000   1.0000   1.0000   0.0000   0.0000   0.0000   0.0000

          k = 0.0000 0.5052 0.0000     band energies (ev):

   -21.9381 -19.0897 -13.5569  -8.7005  -3.4888   0.9652   6.3348   7.6797

     occupation numbers 
     1.0000   1.0000   1.0000   1.0000   0.0000   0.0000   0.0000   0.0000

          k = 0.0000 0.5292 0.0000     band energies (ev):

   -21.5797 -19.5186 -13.6058  -8.4540  -3.8062   0.9462   6.8720   8.9622

     occupation numbers 
     1.0000   1.0000   1.0000   1.0000   0.0000   0.0000   0.0000   0.0000

          k = 0.0000 0.5533 0.0000     band energies (ev):

   -21.2616 -19.8724 -13.6351  -8.2871  -4.0154   0.9493   7.4045   8.5881

     occupation numbers 
     1.0000   1.0000   1.0000   1.0000   0.0000   0.0000   0.0000   0.0000

          k = 0.0000-0.5774 0.0000     band energies (ev):

   -21.1103 -20.0353 -13.6448  -8.2273  -4.0898   0.9477   7.8931  12.3924

     occupation numbers 
     1.0000   1.0000   1.0000   1.0000   0.0000   0.0000   0.0000   0.0000

          k = 0.0208 0.0361 0.0000     band energies (ev):

   -26.1044 -13.1702 -10.5648 -10.5113   0.4323   1.4762   1.5733   1.5744

     occupation numbers 
     1.0000   1.0000   1.0000   1.0000   0.0000   0.0000   0.0000   0.0000

          k = 0.0208 0.0601 0.0000     band energies (ev):

   -26.0647 -13.1221 -10.7149 -10.5925   0.4672   1.5105   1.7068   1.7352

     occupation numbers 
     1.0000   1.0000   1.0000   1.0000   0.0000   0.0000   0.0000   0.0000

          k = 0.0208 0.0842 0.0000     band energies (ev):

   -26.0052 -13.0419 -10.9336 -10.7093   0.5629   1.5551   1.9751   4.3798

     occupation numbers 
     1.0000   1.0000   1.0000   1.0000   0.0000   0.0000   0.0000   0.0000

          k = 0.0208 0.1083 0.0000     band energies (ev):

   -25.9252 -12.9613 -11.2144 -10.8564   0.6580   1.6134   1.8200   2.2849

     occupation numbers 
     1.0000   1.0000   1.0000   1.0000   0.0000   0.0000   0.0000   0.0000

          k = 0.0208 0.1323 0.0000     band energies (ev):

   -25.8258 -12.8406 -11.5494 -11.0280   1.5139   1.6466   2.6676   3.8211

     occupation numbers 
     1.0000   1.0000   1.0000   1.0000   0.0000   0.0000   0.0000   0.0000

          k = 0.0208 0.1564 0.0000     band energies (ev):

   -25.7082 -12.6920 -11.9309 -11.2180   0.9904   1.6689   3.0935   3.5135

     occupation numbers 
     1.0000   1.0000   1.0000   1.0000   0.0000   0.0000   0.0000   0.0000

          k = 0.0208 0.1804 0.0000     band energies (ev):

   -25.5692 -12.5345 -12.3506 -11.4206   1.2093   1.7018   3.1265   3.5765

     occupation numbers 
     1.0000   1.0000   1.0000   1.0000   0.0000   0.0000   0.0000   0.0000

          k = 0.0208 0.2045 0.0000     band energies (ev):

   -25.4125 -12.8017 -12.3461 -11.6307   1.3951   1.7263   2.7033   4.1105

     occupation numbers 
     1.0000   1.0000   1.0000   1.0000   0.0000   0.0000   0.0000   0.0000

          k = 0.0208 0.2285 0.0000     band energies (ev):

   -25.2359 -13.2773 -12.1394 -11.8434   1.4989   1.8430   2.2482   4.6806

     occupation numbers 
     1.0000   1.0000   1.0000   1.0000   0.0000   0.0000   0.0000   0.0000

          k = 0.0208 0.2526 0.0000     band energies (ev):

   -25.0401 -13.7715 -12.0549 -11.9117   1.5025   1.7755   2.0155   5.2810

     occupation numbers 
     1.0000   1.0000   1.0000   1.0000   0.0000   0.0000   0.0000   0.0000

          k = 0.0208 0.2766 0.0000     band energies (ev):

   -24.8254 -14.2791 -12.2615 -11.6634   1.2726   1.4759   2.3325   5.9043

     occupation numbers 
     1.0000   1.0000   1.0000   1.0000   0.0000   0.0000   0.0000   0.0000

          k = 0.0208 0.3007 0.0000     band energies (ev):

   -24.5923 -14.7958 -12.4606 -11.3958   0.7535   1.4264   2.5815   6.5030

     occupation numbers 
     1.0000   1.0000   1.0000   1.0000   0.0000   0.0000   0.0000   0.0000

          k = 0.0208 0.3248 0.0000     band energies (ev):

   -24.3406 -15.3175 -12.6496 -11.1100   0.2241   1.3723   2.9351   7.2136

     occupation numbers 
     1.0000   1.0000   1.0000   1.0000   0.0000   0.0000   0.0000   0.0000

          k = 0.0208 0.3488 0.0000     band energies (ev):

   -24.0712 -15.8409 -12.8263 -10.8072  -0.3142   1.3125   3.2833   4.7599

     occupation numbers 
     1.0000   1.0000   1.0000   1.0000   0.0000   0.0000   0.0000   0.0000

          k = 0.0208 0.3729 0.0000     band energies (ev):

   -23.7840 -16.3632 -12.9895 -10.4891  -0.8522   1.2533   3.6862   5.0656

     occupation numbers 
     1.0000   1.0000   1.0000   1.0000   0.0000   0.0000   0.0000   0.0000

          k = 0.0208 0.3969 0.0000     band energies (ev):

   -23.4797 -16.8810 -13.1372 -10.1595  -1.3838   1.1971   4.1188   5.6315

     occupation numbers 
     1.0000   1.0000   1.0000   1.0000   0.0000   0.0000   0.0000   0.0000

          k = 0.0208 0.4210 0.0000     band energies (ev):

   -23.1588 -17.3921 -13.2685  -9.8221  -1.9047   1.1443   4.5627   6.1803

     occupation numbers 
     1.0000   1.0000   1.0000   1.0000   0.0000   0.0000   0.0000   0.0000

          k = 0.0208 0.4450 0.0000     band energies (ev):

   -22.8228 -17.8939 -13.3827  -9.4825  -2.4054   1.0966   5.0299   6.6791

     occupation numbers 
     1.0000   1.0000   1.0000   1.0000   0.0000   0.0000   0.0000   0.0000

          k = 0.0208 0.4691 0.0000     band energies (ev):

   -22.4730 -18.3835 -13.4796  -9.1493  -2.8767   1.0564   5.5552   6.7516

     occupation numbers 
     1.0000   1.0000   1.0000   1.0000   0.0000   0.0000   0.0000   0.0000

          k = 0.0208 0.4932 0.0000     band energies (ev):

   -22.1134 -18.8565 -13.5568  -8.8358  -3.3027   1.0228   6.0560   7.2156

     occupation numbers 
     1.0000   1.0000   1.0000   1.0000   0.0000   0.0000   0.0000   0.0000

          k = 0.0208 0.5172 0.0000     band energies (ev):

   -21.7504 -19.3042 -13.6150  -8.5604  -3.6625   0.9977   6.5874   9.1581

     occupation numbers 
     1.0000   1.0000   1.0000   1.0000   0.0000   0.0000   0.0000   0.0000

          k = 0.0208 0.5413 0.0000     band energies (ev):

   -21.4048 -19.7065 -13.6542  -8.3496  -3.9303   0.9813   7.1395   8.8452

     occupation numbers 
     1.0000   1.0000   1.0000   1.0000   0.0000   0.0000   0.0000   0.0000

          k = 0.0208 0.5653 0.0000     band energies (ev):

   -21.1462 -19.9932 -13.6737  -8.2334  -4.0754   0.9738   7.6819   8.3238

     occupation numbers 
     1.0000   1.0000   1.0000   1.0000   0.0000   0.0000   0.0000   0.0000

          k = 0.0417 0.0722 0.0000     band energies (ev):

   -26.0151 -13.0527 -10.8937 -10.6945   0.5677   1.5595   1.9233   4.3193

     occupation numbers 
     1.0000   1.0000   1.0000   1.0000   0.0000   0.0000   0.0000   0.0000

          k = 0.0417 0.0962 0.0000     band energies (ev):

   -25.9453 -12.9825 -11.1353 -10.8313   0.6352   1.6267   1.8897   2.1759

     occupation numbers 
     1.0000   1.0000   1.0000   1.0000   0.0000   0.0000   0.0000   0.0000

          k = 0.0417 0.1203 0.0000     band energies (ev):

   -25.8565 -12.8769 -11.4340 -10.9965   0.7466   1.6788   1.9325   2.4924

     occupation numbers 
     1.0000   1.0000   1.0000   1.0000   0.0000   0.0000   0.0000   0.0000

          k = 0.0417 0.1443 0.0000     band energies (ev):

   -25.7471 -12.7423 -11.7827 -11.1832   1.0173   1.7393   2.8687   3.6270

     occupation numbers 
     1.0000   1.0000   1.0000   1.0000   0.0000   0.0000   0.0000   0.0000

          k = 0.0417 0.1684 0.0000     band energies (ev):

   -25.6194 -12.5880 -12.1745 -11.3851   1.0999   1.7624   3.2725   3.2993

     occupation numbers 
     1.0000   1.0000   1.0000   1.0000   0.0000   0.0000   0.0000   0.0000

          k = 0.0417 0.1925 0.0000     band energies (ev):

   -25.4715 -12.6019 -12.4153 -11.5966   1.3096   1.7890   2.8651   3.7786

     occupation numbers 
     1.0000   1.0000   1.0000   1.0000   0.0000   0.0000   0.0000   0.0000

          k = 0.0417 0.2165 0.0000     band energies (ev):

   -25.3045 -13.0580 -12.2189 -11.8125   1.5371   1.8314   2.4353   4.2943

     occupation numbers 
     1.0000   1.0000   1.0000   1.0000   0.0000   0.0000   0.0000   0.0000

          k = 0.0417 0.2406 0.0000     band energies (ev):

   -25.1185 -13.5370 -12.0284 -12.0016   1.6027   1.9711   1.9797   4.8574

     occupation numbers 
     1.0000   1.0000   1.0000   1.0000   0.0000   0.0000   0.0000   0.0000

          k = 0.0417 0.2646 0.0000     band energies (ev):

   -24.9133 -14.0328 -12.2407 -11.7637   1.4834   1.6047   2.1723   5.4438

     occupation numbers 
     1.0000   1.0000   1.0000   1.0000   0.0000   0.0000   0.0000   0.0000

          k = 0.0417 0.2887 0.0000     band energies (ev):

   -24.6896 -14.5406 -12.4461 -11.5063   0.9769   1.5690   2.4561   6.0510

     occupation numbers 
     1.0000   1.0000   1.0000   1.0000   0.0000   0.0000   0.0000   0.0000

          k = 0.0417 0.3127 0.0000     band energies (ev):

   -24.4468 -15.0561 -12.6422 -11.2297   0.4562   1.5252   2.7903   6.6680

     occupation numbers 
     1.0000   1.0000   1.0000   1.0000   0.0000   0.0000   0.0000   0.0000

          k = 0.0417 0.3368 0.0000     band energies (ev):

   -24.1869 -15.5758 -12.8270 -10.9355  -0.0757   1.4667   3.1264   4.4880

     occupation numbers 
     1.0000   1.0000   1.0000   1.0000   0.0000   0.0000   0.0000   0.0000

          k = 0.0417 0.3608 0.0000     band energies (ev):

   -23.9086 -16.0959 -12.9983 -10.6250  -0.6092   1.4103   3.5089   4.7663

     occupation numbers 
     1.0000   1.0000   1.0000   1.0000   0.0000   0.0000   0.0000   0.0000

          k = 0.0417 0.3849 0.0000     band energies (ev):

   -23.6121 -16.6131 -13.1547 -10.3008  -1.1409   1.3566   3.9735   8.4839

     occupation numbers 
     1.0000   1.0000   1.0000   1.0000   0.0000   0.0000   0.0000   0.0000

          k = 0.0417 0.4090 0.0000     band energies (ev):

   -23.2998 -17.1259 -13.2953  -9.9664  -1.6653   1.3006   4.3703   8.9426

     occupation numbers 
     1.0000   1.0000   1.0000   1.0000   0.0000   0.0000   0.0000   0.0000

          k = 0.0417 0.4330 0.0000     band energies (ev):

   -22.9717 -17.6316 -13.4188  -9.6271  -2.1754   1.2491   4.8234   6.2874

     occupation numbers 
     1.0000   1.0000   1.0000   1.0000   0.0000   0.0000   0.0000   0.0000

          k = 0.0417 0.4571 0.0000     band energies (ev):

   -22.6289 -18.1262 -13.5249  -9.2893  -2.6601   1.2054   5.3203   7.1501

     occupation numbers 
     1.0000   1.0000   1.0000   1.0000   0.0000   0.0000   0.0000   0.0000

          k = 0.0417 0.4811 0.0000     band energies (ev):

   -22.2739 -18.6068 -13.6123  -8.9636  -3.1100   1.1684   5.8180   7.0127

     occupation numbers 
     1.0000   1.0000   1.0000   1.0000   0.0000   0.0000   0.0000   0.0000

          k = 0.0417 0.5052 0.0000     band energies (ev):

   -21.9114 -19.0673 -13.6803  -8.6658  -3.5041   1.1394   6.3504   9.4292

     occupation numbers 
     1.0000   1.0000   1.0000   1.0000   0.0000   0.0000   0.0000   0.0000

          k = 0.0417 0.5292 0.0000     band energies (ev):

   -21.5535 -19.4961 -13.7292  -8.4185  -3.8212   1.1179   6.8969   9.0791

     occupation numbers 
     1.0000   1.0000   1.0000   1.0000   0.0000   0.0000   0.0000   0.0000

          k = 0.0417 0.5533 0.0000     band energies (ev):

   -21.2368 -19.8551 -13.7588  -8.2509  -4.0321   1.1057   7.4344   8.5728

     occupation numbers 
     1.0000   1.0000   1.0000   1.0000   0.0000   0.0000   0.0000   0.0000

          k = 0.0417 0.5774 0.0000     band energies (ev):

   -21.0852 -20.0203 -13.7685  -8.1908  -4.1063   1.1027   7.8993   8.1832

     occupation numbers 
     1.0000   1.0000   1.0000   1.0000   0.0000   0.0000   0.0000   0.0000

          k = 0.0625 0.1083 0.0000     band energies (ev):

   -25.8658 -12.8775 -11.3918 -10.9891   0.7998   1.7140   2.4249   3.9766

     occupation numbers 
     1.0000   1.0000   1.0000   1.0000   0.0000   0.0000   0.0000   0.0000

          k = 0.0625 0.1323 0.0000     band energies (ev):

   -25.7667 -12.7628 -11.6993 -11.1745   0.9795   1.8016   2.7241   3.6858

     occupation numbers 
     1.0000   1.0000   1.0000   1.0000   0.0000   0.0000   0.0000   0.0000

          k = 0.0625 0.1564 0.0000     band energies (ev):

   -25.6489 -12.6240 -12.0527 -11.3791   1.1197   1.8628   3.0761   3.3517

     occupation numbers 
     1.0000   1.0000   1.0000   1.0000   0.0000   0.0000   0.0000   0.0000

          k = 0.0625 0.1804 0.0000     band energies (ev):

   -25.5109 -12.4621 -12.4462 -11.5958   1.3269   1.9158   2.9750   3.4796

     occupation numbers 
     1.0000   1.0000   1.0000   1.0000   0.0000   0.0000   0.0000   0.0000

          k = 0.0625 0.2045 0.0000     band energies (ev):

   -25.3538 -12.8735 -12.2760 -11.8183   1.4413   1.9507   2.5620   3.9328

     occupation numbers 
     1.0000   1.0000   1.0000   1.0000   0.0000   0.0000   0.0000   0.0000

          k = 0.0625 0.2285 0.0000     band energies (ev):

   -25.1771 -13.3285 -12.0702 -12.0418   1.7589   2.0359   2.1254   4.4256

     occupation numbers 
     1.0000   1.0000   1.0000   1.0000   0.0000   0.0000   0.0000   0.0000

          k = 0.0625 0.2526 0.0000     band energies (ev):

   -24.9818 -13.8051 -12.2624 -11.8424   1.6544   1.7527   2.1254   4.9551

     occupation numbers 
     1.0000   1.0000   1.0000   1.0000   0.0000   0.0000   0.0000   0.0000

          k = 0.0625 0.2766 0.0000     band energies (ev):

   -24.7671 -14.2977 -12.4764 -11.5950   1.1645   1.7795   2.4005   5.5102

     occupation numbers 
     1.0000   1.0000   1.0000   1.0000   0.0000   0.0000   0.0000   0.0000

          k = 0.0625 0.3007 0.0000     band energies (ev):

   -24.5343 -14.8021 -12.6816 -11.3282   0.6567   1.7460   2.6795   6.0757

     occupation numbers 
     1.0000   1.0000   1.0000   1.0000   0.0000   0.0000   0.0000   0.0000

          k = 0.0625 0.3248 0.0000     band energies (ev):

   -24.2830 -15.3132 -12.8753 -11.0422   0.1361   1.7001   3.0044   6.6770

     occupation numbers 
     1.0000   1.0000   1.0000   1.0000   0.0000   0.0000   0.0000   0.0000

          k = 0.0625 0.3488 0.0000     band energies (ev):

   -24.0136 -15.8282 -13.0561 -10.7400  -0.3881   1.6467   3.3805   7.2626

     occupation numbers 
     1.0000   1.0000   1.0000   1.0000   0.0000   0.0000   0.0000   0.0000

          k = 0.0625 0.3729 0.0000     band energies (ev):

   -23.7268 -16.3425 -13.2224 -10.4226  -0.9159   1.5920   3.7760   7.8449

     occupation numbers 
     1.0000   1.0000   1.0000   1.0000   0.0000   0.0000   0.0000   0.0000

          k = 0.0625 0.3969 0.0000     band energies (ev):

   -23.4226 -16.8542 -13.3725 -10.0930  -1.4396   1.5370   4.1986   8.3982

     occupation numbers 
     1.0000   1.0000   1.0000   1.0000   0.0000   0.0000   0.0000   0.0000

          k = 0.0625 0.4210 0.0000     band energies (ev):

   -23.1026 -17.3603 -13.5058  -9.7555  -1.9537   1.4856   4.6437   8.8435

     occupation numbers 
     1.0000   1.0000   1.0000   1.0000   0.0000   0.0000   0.0000   0.0000

          k = 0.0625 0.4450 0.0000     band energies (ev):

   -22.7672 -17.8579 -13.6216  -9.4157  -2.4486   1.4389   5.1208   9.3422

     occupation numbers 
     1.0000   1.0000   1.0000   1.0000   0.0000   0.0000   0.0000   0.0000

          k = 0.0625 0.4691 0.0000     band energies (ev):

   -22.4186 -18.3441 -13.7193  -9.0822  -2.9153   1.3970   5.6149   6.7635

     occupation numbers 
     1.0000   1.0000   1.0000   1.0000   0.0000   0.0000   0.0000   0.0000

          k = 0.0625 0.4932 0.0000     band energies (ev):

   -22.0593 -18.8138 -13.7974  -8.7672  -3.3366   1.3643   6.1462   9.4490

     occupation numbers 
     1.0000   1.0000   1.0000   1.0000   0.0000   0.0000   0.0000   0.0000

          k = 0.0625 0.5172 0.0000     band energies (ev):

   -21.6973 -19.2596 -13.8566  -8.4905  -3.6953   1.3385   6.6975   9.1974

     occupation numbers 
     1.0000   1.0000   1.0000   1.0000   0.0000   0.0000   0.0000   0.0000

          k = 0.0625 0.5413 0.0000     band energies (ev):

   -21.3531 -19.6598 -13.8960  -8.2781  -3.9622   1.3219   7.2094   8.8384

     occupation numbers 
     1.0000   1.0000   1.0000   1.0000   0.0000   0.0000   0.0000   0.0000

          k = 0.0625 0.5653 0.0000     band energies (ev):

   -21.0956 -19.9445 -13.9161  -8.1606  -4.1082   1.3149   7.7257   8.3313

     occupation numbers 
     1.0000   1.0000   1.0000   1.0000   0.0000   0.0000   0.0000   0.0000

          k = 0.0833 0.1443 0.0000     band energies (ev):

   -25.6590 -12.6334 -12.0078 -11.3811   1.0416   1.9082   2.9851   3.3801

     occupation numbers 
     1.0000   1.0000   1.0000   1.0000   0.0000   0.0000   0.0000   0.0000

          k = 0.0833 0.1684 0.0000     band energies (ev):

   -25.5307 -12.4831 -12.3571 -11.6063   1.2484   2.0210   3.0306   3.2869

     occupation numbers 
     1.0000   1.0000   1.0000   1.0000   0.0000   0.0000   0.0000   0.0000

          k = 0.0833 0.1925 0.0000     band energies (ev):

   -25.3831 -12.7438 -12.3108 -11.8407   1.4303   2.1122   2.6444   3.6389

     occupation numbers 
     1.0000   1.0000   1.0000   1.0000   0.0000   0.0000   0.0000   0.0000

          k = 0.0833 0.2165 0.0000     band energies (ev):

   -25.2155 -13.1633 -12.1164 -12.0774   1.6363   2.1966   2.2238   4.0408

     occupation numbers 
     1.0000   1.0000   1.0000   1.0000   0.0000   0.0000   0.0000   0.0000

          k = 0.0833 0.2406 0.0000     band energies (ev):

   -25.0306 -13.6104 -12.3114 -11.8992   1.7818   1.8908   2.2443   4.4942

     occupation numbers 
     1.0000   1.0000   1.0000   1.0000   0.0000   0.0000   0.0000   0.0000

          k = 0.0833 0.2646 0.0000     band energies (ev):

   -24.8256 -14.0792 -12.5385 -11.6620   1.3094   2.0050   2.4026   4.9930

     occupation numbers 
     1.0000   1.0000   1.0000   1.0000   0.0000   0.0000   0.0000   0.0000

          k = 0.0833 0.2887 0.0000     band energies (ev):

   -24.6023 -14.5646 -12.7562 -11.4046   0.8210   2.0173   2.6243   5.5160

     occupation numbers 
     1.0000   1.0000   1.0000   1.0000   0.0000   0.0000   0.0000   0.0000

          k = 0.0833 0.3127 0.0000     band energies (ev):

   -24.3602 -15.0616 -12.9620 -11.1287   0.3172   1.9934   2.9101   6.0640

     occupation numbers 
     1.0000   1.0000   1.0000   1.0000   0.0000   0.0000   0.0000   0.0000

          k = 0.0833 0.3368 0.0000     band energies (ev):

   -24.1005 -15.5657 -13.1543 -10.8348  -0.1977   1.9497   3.2618   6.6099

     occupation numbers 
     1.0000   1.0000   1.0000   1.0000   0.0000   0.0000   0.0000   0.0000

          k = 0.0833 0.3608 0.0000     band energies (ev):

   -23.8227 -16.0729 -13.3318 -10.5247  -0.7171   1.9000   3.6415   7.1700

     occupation numbers 
     1.0000   1.0000   1.0000   1.0000   0.0000   0.0000   0.0000   0.0000

          k = 0.0833 0.3849 0.0000     band energies (ev):

   -23.5274 -16.5803 -13.4931 -10.2010  -1.2352   1.8484   4.0524   7.7251

     occupation numbers 
     1.0000   1.0000   1.0000   1.0000   0.0000   0.0000   0.0000   0.0000

          k = 0.0833 0.4090 0.0000     band energies (ev):

   -23.2157 -17.0842 -13.6373  -9.8674  -1.7471   1.7964   4.4867   8.2613

     occupation numbers 
     1.0000   1.0000   1.0000   1.0000   0.0000   0.0000   0.0000   0.0000

          k = 0.0833 0.4330 0.0000     band energies (ev):

   -22.8880 -17.5819 -13.7637  -9.5275  -2.2455   1.7481   4.9549   8.6332

     occupation numbers 
     1.0000   1.0000   1.0000   1.0000   0.0000   0.0000   0.0000   0.0000

          k = 0.0833 0.4571 0.0000     band energies (ev):

   -22.5463 -18.0705 -13.8716  -9.1894  -2.7222   1.7051   5.4358   9.1571

     occupation numbers 
     1.0000   1.0000   1.0000   1.0000   0.0000   0.0000   0.0000   0.0000

          k = 0.0833 0.4811 0.0000     band energies (ev):

   -22.1924 -18.5461 -13.9606  -8.8624  -3.1652   1.6674   5.9373   9.2187

     occupation numbers 
     1.0000   1.0000   1.0000   1.0000   0.0000   0.0000   0.0000   0.0000

          k = 0.0833 0.5052 0.0000     band energies (ev):

   -21.8315 -19.0026 -14.0300  -8.5626  -3.5566   1.6379   6.4563   9.2672

     occupation numbers 
     1.0000   1.0000   1.0000   1.0000   0.0000   0.0000   0.0000   0.0000

          k = 0.0833 0.5292 0.0000     band energies (ev):

   -21.4750 -19.4279 -14.0800  -8.3127  -3.8725   1.6172   6.9874   9.0481

     occupation numbers 
     1.0000   1.0000   1.0000   1.0000   0.0000   0.0000   0.0000   0.0000

          k = 0.0833 0.5533 0.0000     band energies (ev):

   -21.1601 -19.7842 -14.1099  -8.1424  -4.0833   1.6047   7.5177   8.5990

     occupation numbers 
     1.0000   1.0000   1.0000   1.0000   0.0000   0.0000   0.0000   0.0000

          k = 0.0833 0.5774 0.0000     band energies (ev):

   -21.0093 -19.9483 -14.1200  -8.0815  -4.1570   1.6011   7.9340   8.1924

     occupation numbers 
     1.0000   1.0000   1.0000   1.0000   0.0000   0.0000   0.0000   0.0000

          k = 0.1042 0.1804 0.0000     band energies (ev):
[...]

     occupation numbers 
     1.0000   1.0000   1.0000   1.0000   0.0000   0.0000   0.0000   0.0000

          k = 0.1875 0.3969 0.0000 (  8599 PWs)   bands (ev):

   -18.5394 -12.0994 -10.2456  -6.1165   1.6734   5.4452   6.1033   6.2842

     occupation numbers 
     1.0000   1.0000   1.0000   1.0000   0.0000   0.0000   0.0000   0.0000

          k = 0.1875 0.4210 0.0000 (  8607 PWs)   bands (ev):

   -18.2116 -12.5496 -10.4377  -5.7625   1.1996   5.9123   6.5651   6.7672

     occupation numbers 
     1.0000   1.0000   1.0000   1.0000   0.0000   0.0000   0.0000   0.0000

          k = 0.1875 0.4450 0.0000 (  8605 PWs)   bands (ev):

   -17.8685 -13.0087 -10.5965  -5.4021   0.7332   6.4044   7.0459   7.2782

     occupation numbers 
     1.0000   1.0000   1.0000   1.0000   0.0000   0.0000   0.0000   0.0000

          k = 0.1875 0.4691 0.0000 (  8601 PWs)   bands (ev):

   -17.5118 -13.4692 -10.7250  -5.0423   0.2826   6.9203   7.5390   7.8161

     occupation numbers 
     1.0000   1.0000   1.0000   1.0000   0.0000   0.0000   0.0000   0.0000

          k = 0.1875 0.4932 0.0000 (  8591 PWs)   bands (ev):

   -17.1448 -13.9236 -10.8256  -4.6947  -0.1394   7.4566   8.0296   8.1920

     occupation numbers 
     1.0000   1.0000   1.0000   1.0000   0.0000   0.0000   0.0000   0.0000

          k = 0.1875 0.5172 0.0000 (  8578 PWs)   bands (ev):

   -16.7746 -14.3618 -10.9000  -4.3783  -0.5125   7.9837   8.1983   8.4861

     occupation numbers 
     1.0000   1.0000   1.0000   1.0000   0.0000   0.0000   0.0000   0.0000

          k = 0.1875 0.5413 0.0000 (  8567 PWs)   bands (ev):

   -16.4203 -14.7625 -10.9491  -4.1247  -0.8045   8.1149   8.6236   8.8454

     occupation numbers 
     1.0000   1.0000   1.0000   1.0000   0.0000   0.0000   0.0000   0.0000

          k = 0.1875 0.5653 0.0000 (  8570 PWs)   bands (ev):

   -16.1511 -15.0551 -10.9735  -3.9784  -0.9703   8.1109   9.0366   9.1982

     occupation numbers 
     1.0000   1.0000   1.0000   1.0000   0.0000   0.0000   0.0000   0.0000

          k = 0.2083 0.3608 0.0000 (  8625 PWs)   bands (ev):

   -18.8606 -11.5897 -10.0875  -6.4693   2.1757   4.9904   5.6488   5.8152

     occupation numbers 
     1.0000   1.0000   1.0000   1.0000   0.0000   0.0000   0.0000   0.0000

          k = 0.2083 0.3849 0.0000 (  8617 PWs)   bands (ev):

   -18.5589 -11.9524 -10.3864  -6.1347   1.7250   5.4179   6.0725   6.2558

     occupation numbers 
     1.0000   1.0000   1.0000   1.0000   0.0000   0.0000   0.0000   0.0000

          k = 0.2083 0.4090 0.0000 (  8611 PWs)   bands (ev):

   -18.2405 -12.3452 -10.6385  -5.7871   1.2718   5.8713   6.5182   6.7247

     occupation numbers 
     1.0000   1.0000   1.0000   1.0000   0.0000   0.0000   0.0000   0.0000

          k = 0.2083 0.4330 0.0000 (  8611 PWs)   bands (ev):

   -17.9064 -12.7620 -10.8451  -5.4300   0.8203   6.3502   6.9815   7.2218

     occupation numbers 
     1.0000   1.0000   1.0000   1.0000   0.0000   0.0000   0.0000   0.0000

          k = 0.2083 0.4571 0.0000 (  8603 PWs)   bands (ev):

   -17.5579 -13.1940 -11.0109  -5.0687   0.3770   6.8533   7.4542   7.7468

     occupation numbers 
     1.0000   1.0000   1.0000   1.0000   0.0000   0.0000   0.0000   0.0000

          k = 0.2083 0.4811 0.0000 (  8593 PWs)   bands (ev):

   -17.1976 -13.6316 -11.1407  -4.7117  -0.0489   7.3790   7.9189   8.2987

     occupation numbers 
     1.0000   1.0000   1.0000   1.0000   0.0000   0.0000   0.0000   0.0000

          k = 0.2083 0.5052 0.0000 (  8580 PWs)   bands (ev):

   -16.8299 -14.0643 -11.2383  -4.3728  -0.4424   7.9236   8.3390   8.7425

     occupation numbers 
     1.0000   1.0000   1.0000   1.0000   0.0000   0.0000   0.0000   0.0000

          k = 0.2083 0.5292 0.0000 (  8569 PWs)   bands (ev):

   -16.4660 -14.4773 -11.3064  -4.0765  -0.7783   8.4669   8.6560   8.7413

     occupation numbers 
     1.0000   1.0000   1.0000   1.0000   0.0000   0.0000   0.0000   0.0000

          k = 0.2083 0.5533 0.0000 (  8572 PWs)   bands (ev):

   -16.1410 -14.8328 -11.3466  -3.8629  -1.0159   8.6707   8.8322   9.0948

     occupation numbers 
     1.0000   1.0000   1.0000   1.0000   0.0000   0.0000   0.0000   0.0000

          k = 0.2083 0.5774 0.0000 (  8580 PWs)   bands (ev):

   -15.9816 -15.0024 -11.3600  -3.7828  -1.1041   8.6733   8.8851   9.5670

     occupation numbers 
     1.0000   1.0000   1.0000   1.0000   0.0000   0.0000   0.0000   0.0000

          k = 0.2292 0.3969 0.0000 (  8619 PWs)   bands (ev):

   -18.2502 -12.2643 -10.7184  -5.7953   1.2964   5.8577   6.5024   6.7107

     occupation numbers 
     1.0000   1.0000   1.0000   1.0000   0.0000   0.0000   0.0000   0.0000

          k = 0.2292 0.4210 0.0000 (  8607 PWs)   bands (ev):

   -17.9254 -12.6077 -11.0010  -5.4442   0.8657   6.3229   6.9488   7.1935

     occupation numbers 
     1.0000   1.0000   1.0000   1.0000   0.0000   0.0000   0.0000   0.0000

          k = 0.2292 0.4450 0.0000 (  8597 PWs)   bands (ev):

   -17.5857 -12.9818 -11.2306  -5.0851   0.4371   6.8127   7.4021   7.7045

     occupation numbers 
     1.0000   1.0000   1.0000   1.0000   0.0000   0.0000   0.0000   0.0000

          k = 0.2292 0.4691 0.0000 (  8595 PWs)   bands (ev):

   -17.2331 -13.3789 -11.4100  -4.7241   0.0170   7.3255   7.8419   8.2433

     occupation numbers 
     1.0000   1.0000   1.0000   1.0000   0.0000   0.0000   0.0000   0.0000

          k = 0.2292 0.4932 0.0000 (  8592 PWs)   bands (ev):

   -16.8708 -13.7875 -11.5453  -4.3710  -0.3842   7.8590   8.2268   8.8090

     occupation numbers 
     1.0000   1.0000   1.0000   1.0000   0.0000   0.0000   0.0000   0.0000

          k = 0.2292 0.5172 0.0000 (  8585 PWs)   bands (ev):

   -16.5056 -14.1935 -11.6421  -4.0432  -0.7485   8.4082   8.5009   9.2886

     occupation numbers 
     1.0000   1.0000   1.0000   1.0000   0.0000   0.0000   0.0000   0.0000

          k = 0.2292 0.5413 0.0000 (  8586 PWs)   bands (ev):

   -16.1559 -14.5732 -11.7045  -3.7725  -1.0440   8.6477   8.9548   9.2893

     occupation numbers 
     1.0000   1.0000   1.0000   1.0000   0.0000   0.0000   0.0000   0.0000

          k = 0.2292 0.5653 0.0000 (  8593 PWs)   bands (ev):

   -15.8886 -14.8563 -11.7352  -3.6108  -1.2182   8.7046   9.2203   9.5609

     occupation numbers 
     1.0000   1.0000   1.0000   1.0000   0.0000   0.0000   0.0000   0.0000

          k = 0.2500 0.4330 0.0000 (  8593 PWs)   bands (ev):

   -17.5950 -12.8971 -11.3179  -5.0906   0.4577   6.7991   7.3845   7.6904

     occupation numbers 
     1.0000   1.0000   1.0000   1.0000   0.0000   0.0000   0.0000   0.0000

          k = 0.2500 0.4571 0.0000 (  8597 PWs)   bands (ev):

   -17.2511 -13.2193 -11.5783  -4.7306   0.0518   7.2985   7.8022   8.2152

     occupation numbers 
     1.0000   1.0000   1.0000   1.0000   0.0000   0.0000   0.0000   0.0000

          k = 0.2500 0.4811 0.0000 (  8587 PWs)   bands (ev):

   -16.8959 -13.5718 -11.7796  -4.3708  -0.3457   7.8191   8.1561   8.7675

     occupation numbers 
     1.0000   1.0000   1.0000   1.0000   0.0000   0.0000   0.0000   0.0000

          k = 0.2500 0.5052 0.0000 (  8593 PWs)   bands (ev):

   -16.5340 -13.9435 -11.9263  -4.0227  -0.7233   8.3570   8.3908   9.3464

     occupation numbers 
     1.0000   1.0000   1.0000   1.0000   0.0000   0.0000   0.0000   0.0000

          k = 0.2500 0.5292 0.0000 (  8574 PWs)   bands (ev):

   -16.1757 -14.3157 -12.0252  -3.7081  -1.0590   8.5037   8.9047   9.8155

     occupation numbers 
     1.0000   1.0000   1.0000   1.0000   0.0000   0.0000   0.0000   0.0000

          k = 0.2500 0.5533 0.0000 (  8578 PWs)   bands (ev):

   -15.8537 -14.6488 -12.0822  -3.4702  -1.3097   8.5443   9.4393   9.8078

     occupation numbers 
     1.0000   1.0000   1.0000   1.0000   0.0000   0.0000   0.0000   0.0000

          k = 0.2500 0.5774 0.0000 (  8598 PWs)   bands (ev):

   -15.6930 -14.8136 -12.1009  -3.3769  -1.4072   8.5535   9.7290   9.9010

     occupation numbers 
     1.0000   1.0000   1.0000   1.0000   0.0000   0.0000   0.0000   0.0000

          k = 0.2708 0.4691 0.0000 (  8597 PWs)   bands (ev):

   -16.9043 -13.4851 -11.8726  -4.3709  -0.3323   7.8056   8.1319   8.7535

     occupation numbers 
     1.0000   1.0000   1.0000   1.0000   0.0000   0.0000   0.0000   0.0000

          k = 0.2708 0.4932 0.0000 (  8583 PWs)   bands (ev):

   -16.5486 -13.7841 -12.1027  -4.0129  -0.7090   8.3306   8.3337   9.3192

     occupation numbers 
     1.0000   1.0000   1.0000   1.0000   0.0000   0.0000   0.0000   0.0000

          k = 0.2708 0.5172 0.0000 (  8575 PWs)   bands (ev):

   -16.1905 -14.1096 -12.2671  -3.6698  -1.0657   8.4126   8.8671   9.9098

     occupation numbers 
     1.0000   1.0000   1.0000   1.0000   0.0000   0.0000   0.0000   0.0000

          k = 0.2708 0.5413 0.0000 (  8585 PWs)   bands (ev):

   -15.8459 -14.4388 -12.3711  -3.3697  -1.3746   8.4277   9.4019  10.2632

     occupation numbers 
     1.0000   1.0000   1.0000   1.0000   0.0000   0.0000   0.0000   0.0000

          k = 0.2708 0.5653 0.0000 (  8581 PWs)   bands (ev):

   -15.5762 -14.7029 -12.4211  -3.1753  -1.5734   8.4251   9.8969  10.2010

     occupation numbers 
     1.0000   1.0000   1.0000   1.0000   0.0000   0.0000   0.0000   0.0000

          k = 0.2917 0.5052 0.0000 (  8573 PWs)   bands (ev):

   -16.1958 -14.0261 -12.3623  -3.6570  -1.0675   8.3815   8.8542   9.8978

     occupation numbers 
     1.0000   1.0000   1.0000   1.0000   0.0000   0.0000   0.0000   0.0000

          k = 0.2917 0.5292 0.0000 (  8581 PWs)   bands (ev):

   -15.8459 -14.2985 -12.5473  -3.3169  -1.4086   8.3667   9.3782  10.4964

     occupation numbers 
     1.0000   1.0000   1.0000   1.0000   0.0000   0.0000   0.0000   0.0000

          k = 0.2917 0.5533 0.0000 (  8595 PWs)   bands (ev):

   -15.5248 -14.5760 -12.6558  -3.0300  -1.6959   8.3413   9.8762  10.5154

     occupation numbers 
     1.0000   1.0000   1.0000   1.0000   0.0000   0.0000   0.0000   0.0000

          k = 0.2917 0.5774 0.0000 (  8578 PWs)   bands (ev):

   -15.3527 -14.7344 -12.6913  -2.9003  -1.8256   8.3305  10.2338  10.3563

     occupation numbers 
     1.0000   1.0000   1.0000   1.0000   0.0000   0.0000   0.0000   0.0000

          k = 0.3125 0.5413 0.0000 (  8597 PWs)   bands (ev):

   -15.5113 -14.5185 -12.7457  -2.9750  -1.7430   8.3124   9.8666  10.6338

     occupation numbers 
     1.0000   1.0000   1.0000   1.0000   0.0000   0.0000   0.0000   0.0000

          k = 0.3125 0.5653 0.0000 (  8588 PWs)   bands (ev):

   -15.2247 -14.7452 -12.8478  -2.6911  -2.0228   8.2794  10.2749  10.5568

     occupation numbers 
     1.0000   1.0000   1.0000   1.0000   0.0000   0.0000   0.0000   0.0000

          k = 0.3333 0.5774 0.0000 (  8592 PWs)   bands (ev):

   -14.9609 -14.9609 -12.9163  -2.3549  -2.3549   8.2573  10.5021  10.5021

     occupation numbers 
     1.0000   1.0000   1.0000   0.5000   0.5000   0.0000   0.0000   0.0000

     the Fermi energy is    -2.3549 ev

!    total energy              =     -36.88805988 Ry
     total all-electron energy =      -152.416256 Ry
     estimated scf accuracy    <          5.9E-11 Ry
     smearing contrib. (-TS)   =      -0.00000098 Ry
     internal energy E=F+TS    =     -36.88805890 Ry

     The total energy is F=E-TS. E is the sum of the following terms:
     one-electron contribution =    -223.49505609 Ry
     hartree contribution      =     113.17982730 Ry
     xc contribution           =      -9.27149794 Ry
     ewald contribution        =      95.03260269 Ry
     one-center paw contrib.   =     -12.33393485 Ry
      -> PAW hartree energy AE =       9.39684567 Ry
      -> PAW hartree energy PS =      -9.38820204 Ry
      -> PAW xc energy AE      =     -10.65194570 Ry
      -> PAW xc energy PS      =       4.47633464 Ry
      -> total E_H with PAW    =     113.18847093 Ry
      -> total E_XC with PAW   =     -15.44710900 Ry

     convergence has been achieved in  15 iterations

     negative rho (up, down):  1.815E-04 0.000E+00

     Forces acting on atoms (cartesian axes, Ry/au):

     atom    1 type  1   force =     0.00000000    0.00000000    0.00000000
     atom    2 type  1   force =    -0.00000000    0.00000000    0.00000000
     The non-local contrib.  to forces
     atom    1 type  1   force =    -0.00000000   -0.00000000   -0.00000000
     atom    2 type  1   force =     0.00000000    0.00000000    0.00000000
     The ionic contribution  to forces
     atom    1 type  1   force =    -0.00000001    0.00000000    0.00000000
     atom    2 type  1   force =     0.00000001   -0.00000000    0.00000000
     The local contribution  to forces
     atom    1 type  1   force =     0.00000000   -0.00000000   -0.00000000
     atom    2 type  1   force =     0.00000001   -0.00000000   -0.00000000
     The core correction contribution to forces
     atom    1 type  1   force =    -0.00000000    0.00000000   -0.00000000
     atom    2 type  1   force =    -0.00000000    0.00000000   -0.00000000
     The Hubbard contrib.    to forces
     atom    1 type  1   force =     0.00000000    0.00000000    0.00000000
     atom    2 type  1   force =     0.00000000    0.00000000    0.00000000
     The SCF correction term to forces
     atom    1 type  1   force =     0.00000000   -0.00000000    0.00000000
     atom    2 type  1   force =    -0.00000000    0.00000000    0.00000000

     Total force =     0.000000     Total SCF correction =     0.000000


     Computing stress (Cartesian axis) and pressure


     negative rho (up, down):  1.815E-04 0.000E+00
          total   stress  (Ry/bohr**3)                   (kbar)     P=       -0.13
  -0.00000134   0.00000000   0.00000000           -0.20        0.00        0.00
   0.00000000  -0.00000134  -0.00000000            0.00       -0.20       -0.00
   0.00000000   0.00000000  -0.00000003            0.00        0.00       -0.00

     kinetic stress (kbar)   1933.44      0.00      0.00
                                0.00   1933.44      0.00
                                0.00      0.00   2195.45

     local   stress (kbar) -48876.06      0.00     -0.00
                                0.00 -48876.06     -0.00
                               -0.00     -0.00  48735.72

     nonloc. stress (kbar)    490.55     -0.00      0.00
                               -0.00    490.55      0.00
                                0.00      0.00    447.74

     hartree stress (kbar)  23224.76     -0.00      0.00
                               -0.00  23224.76      0.00
                                0.00      0.00 -23052.52

     exc-cor stress (kbar)    -34.55     -0.00     -0.00
                               -0.00    -34.55     -0.00
                               -0.00     -0.00    -56.54

     corecor stress (kbar)   -466.76      0.00     -0.00
                                0.00   -466.76     -0.00
                               -0.00     -0.00   -458.55

     ewald   stress (kbar)  23728.42     -0.00     -0.00
                               -0.00  23728.42     -0.00
                               -0.00     -0.00 -27811.30

     hubbard stress (kbar)      0.00      0.00      0.00
                                0.00      0.00      0.00
                                0.00      0.00      0.00

     DFT-D   stress (kbar)      0.00      0.00      0.00
                                0.00      0.00      0.00
                                0.00      0.00      0.00

     XDM     stress (kbar)      0.00      0.00      0.00
                                0.00      0.00      0.00
                                0.00      0.00      0.00

     dft-nl  stress (kbar)      0.00      0.00      0.00
                                0.00      0.00      0.00
                                0.00      0.00      0.00

     TS-vdW  stress (kbar)      0.00      0.00      0.00
                                0.00      0.00      0.00
                                0.00      0.00      0.00

     MDB     stress (kbar)      0.00      0.00      0.00
                                0.00      0.00      0.00
                                0.00      0.00      0.00

     3D-RISM stress (kbar)      0.00      0.00      0.00
                                0.00      0.00      0.00
                                0.00      0.00      0.00


     Writing all to output data dir ./out/graphene.save/

     init_run     :      0.71s CPU      1.29s WALL (       1 calls)
     electrons    :     20.94s CPU     43.55s WALL (       1 calls)
     forces       :      0.10s CPU      0.18s WALL (       1 calls)
     stress       :      0.64s CPU      0.69s WALL (       1 calls)

     Called by init_run:
     wfcinit      :      0.46s CPU      0.95s WALL (       1 calls)
     wfcinit:atom :      0.01s CPU      0.02s WALL (     217 calls)
     wfcinit:wfcr :      0.42s CPU      0.88s WALL (     217 calls)
     potinit      :      0.03s CPU      0.05s WALL (       1 calls)
     hinit0       :      0.18s CPU      0.21s WALL (       1 calls)

     Called by electrons:
     c_bands      :     17.76s CPU     36.93s WALL (      15 calls)
     sum_band     :      2.92s CPU      5.60s WALL (      15 calls)
     v_of_rho     :      0.06s CPU      0.10s WALL (      16 calls)
     v_h          :      0.00s CPU      0.01s WALL (      16 calls)
     v_xc         :      0.07s CPU      0.10s WALL (      18 calls)
     newd         :      0.04s CPU      0.05s WALL (      16 calls)
     PAW_pot      :      0.11s CPU      0.20s WALL (      16 calls)
     mix_rho      :      0.02s CPU      0.06s WALL (      15 calls)

     Called by c_bands:
     init_us_2    :      0.24s CPU      0.43s WALL (    7161 calls)
     init_us_2:cp :      0.23s CPU      0.42s WALL (    7161 calls)
     cegterg      :     17.24s CPU     35.28s WALL (    3255 calls)

     Called by sum_band:
     sum_band:wei :      0.00s CPU      0.01s WALL (      15 calls)
     sum_band:loo :      2.87s CPU      5.51s WALL (      15 calls)
     sum_band:buf :      0.04s CPU      0.07s WALL (    3255 calls)
     sum_band:ini :      0.12s CPU      0.20s WALL (    3255 calls)
     sum_band:cal :      0.16s CPU      0.32s WALL (    3255 calls)
     sum_band:bec :      0.01s CPU      0.01s WALL (    3255 calls)
     addusdens    :      0.04s CPU      0.05s WALL (      15 calls)
                                        0.00s GPU  (      15 calls)
     addusd:skk   :      0.00s CPU      0.00s WALL (      15 calls)
                                        0.00s GPU  (      15 calls)

     Called by *egterg:
     cdiaghg      :      0.60s CPU      1.48s WALL (   14332 calls)
     cegterg:over :      0.99s CPU      2.22s WALL (   11077 calls)
     cegterg:upda :      0.11s CPU      0.23s WALL (   11077 calls)
     cegterg:last :      0.17s CPU      0.33s WALL (    7021 calls)
     h_psi        :     14.76s CPU     29.68s WALL (   14549 calls)
     s_psi        :      0.12s CPU      0.21s WALL (   14549 calls)
     g_psi        :      0.06s CPU      0.13s WALL (   11077 calls)

     Called by h_psi:
     h_psi:calbec :      0.62s CPU      1.38s WALL (   14549 calls)
     vloc_psi     :     13.94s CPU     27.92s WALL (   14549 calls)
     add_vuspsi   :      0.14s CPU      0.28s WALL (   14549 calls)

     General routines
     calbec       :      0.83s CPU      1.81s WALL (   18889 calls)
     fft          :      0.19s CPU      0.24s WALL (     201 calls)
     ffts         :      0.00s CPU      0.00s WALL (      15 calls)
     fftw         :     15.67s CPU     31.37s WALL (  172342 calls)

     Parallel routines

     PAW routines
     PAW_pot      :      0.11s CPU      0.20s WALL (      16 calls)
     PAW_symme    :      0.00s CPU      0.01s WALL (      31 calls)

     PWSCF        :     22.67s CPU     48.51s WALL


   This run was terminated on:  19:34:48  10Dec2023            

=------------------------------------------------------------------------------=
   JOB DONE.
=------------------------------------------------------------------------------=
