
     Program BANDS v.7.2 starts on 21Nov2023 at 16:26:54 

     This program is part of the open-source Quantum ESPRESSO suite
     for quantum simulation of materials; please cite
         "P. Giannozzi et al., J. Phys.:Condens. Matter 21 395502 (2009);
         "P. Giannozzi et al., J. Phys.:Condens. Matter 29 465901 (2017);
         "P. Giannozzi et al., J. Chem. Phys. 152 154105 (2020);
          URL http://www.quantum-espresso.org", 
     in publications or presentations arising from this work. More details at
     http://www.quantum-espresso.org/quote

     Parallel version (MPI & OpenMP), running on       2 processor cores
     Number of MPI processes:                 2
     Threads/MPI process:                     1

     MPI processes distributed on     1 nodes
     R & G space division:  proc/nbgrp/npool/nimage =       2
     507335 MiB available memory on the printing compute node when the environment starts
 

     Reading xml data from directory:

     ../SCF/out/graphene.save/
     file C.pbe-n-kjpaw_psl.1.0.0.UPF: wavefunction(s)  2S 2P renormalized

     IMPORTANT: XC functional enforced from input :
     Exchange-correlation= PBE
                           (   1   4   3   4   0   0   0)
     Any further DFT definition will be discarded
     Please, verify this is what you really want

 
     Parallelization info
     --------------------
     sticks:   dense  smooth     PW     G-vecs:    dense   smooth      PW
     Min         297     150     45                48017    17042    3029
     Max         298     151     46                48026    17065    3036
     Sum         595     301     91                96043    34107    6065
 
     Using Slab Decomposition
 

     Check: negative core charge=   -0.000002

     negative rho (up, down):  1.273E-04 0.000E+00
     Reading collected, re-writing distributed wavefunctions
     high-symmetry point: -0.3333 0.5774 0.0000   x coordinate   0.0000
     high-symmetry point:  0.0000 0.0000 0.0000   x coordinate   0.6667
     high-symmetry point:  0.0000 0.5774 0.0000   x coordinate   1.2440
     high-symmetry point: -0.3333 0.5774 0.0000   x coordinate   1.5774

     Plottable bands (eV) written to file graphene.gnu
     Bands written to file graphene

 **************************************************************************

                    xk=(  -0.33333,   0.57735,   0.00000  )

     zone border point and non-symmorphic group 
     symmetry decomposition not available

 **************************************************************************

 **************************************************************************

                    xk=(  -0.32667,   0.56580,   0.00000  )

     point group C_2v (mm2) 
     there are  4 classes
     the character table:

       E     C2    s_v   s_v' 
A_1    1.00  1.00  1.00  1.00
A_2    1.00  1.00 -1.00 -1.00
B_1    1.00 -1.00  1.00 -1.00
B_2    1.00 -1.00 -1.00  1.00

     the symmetry operations in each class and the name of the first element:

     E        1
                                                                 
     C2       2
                                                                 
     s_v      4
                                                                 
     s_v'     3
                                                                 

     Band symmetry, C_2v (mm2)  point group:

     e(  1 -  1) =    -15.11085  eV     1   --> A_1  D_1  S_1  
     e(  2 -  2) =    -14.82476  eV     1   --> B_2  D_4  S_4  
     e(  3 -  3) =    -12.89452  eV     1   --> A_1  D_1  S_1  
     e(  4 -  4) =     -2.54444  eV     1   --> B_1  D_3  S_3  
     e(  5 -  5) =     -2.16590  eV     1   --> A_2  D_2  S_2  
     e(  6 -  6) =      8.26584  eV     1   --> B_1  D_3  S_3  
     e(  7 -  7) =     10.39106  eV     1   --> A_1  D_1  S_1  
     e(  8 -  8) =     10.56602  eV     1   --> B_2  D_4  S_4  
     e(  9 -  9) =     11.09839  eV     1   --> A_1  D_1  S_1  
     e( 10 - 10) =     12.04919  eV     1   --> B_1  D_3  S_3  
     e( 11 - 11) =     12.09411  eV     1   --> A_1  D_1  S_1  
     e( 12 - 12) =     12.57925  eV     1   --> A_2  D_2  S_2  
     e( 13 - 13) =     12.67727  eV     1   --> B_2  D_4  S_4  
     e( 14 - 14) =     12.71191  eV     1   --> A_1  D_1  S_1  
     e( 15 - 15) =     12.83751  eV     1   --> B_1  D_3  S_3  
     e( 16 - 16) =     13.02875  eV     1   --> A_1  D_1  S_1  

 **************************************************************************

 **************************************************************************

                    xk=(  -0.32000,   0.55426,   0.00000  )

     Band symmetry, C_2v (mm2)  point group:

     e(  1 -  1) =    -15.28832  eV     1   --> A_1  D_1  S_1  
     e(  2 -  2) =    -14.68345  eV     1   --> B_2  D_4  S_4  
     e(  3 -  3) =    -12.83919  eV     1   --> A_1  D_1  S_1  
     e(  4 -  4) =     -2.74273  eV     1   --> B_1  D_3  S_3  
     e(  5 -  5) =     -1.97047  eV     1   --> A_2  D_2  S_2  
     e(  6 -  6) =      8.28411  eV     1   --> B_1  D_3  S_3  
     e(  7 -  7) =     10.18441  eV     1   --> A_1  D_1  S_1  
     e(  8 -  8) =     10.60854  eV     1   --> B_2  D_4  S_4  
     e(  9 -  9) =     11.08420  eV     1   --> A_1  D_1  S_1  
     e( 10 - 10) =     11.67954  eV     1   --> B_1  D_3  S_3  
     e( 11 - 11) =     11.69087  eV     1   --> A_1  D_1  S_1  
     e( 12 - 12) =     12.68489  eV     1   --> B_1  D_3  S_3  
     e( 13 - 13) =     12.75890  eV     1   --> A_1  D_1  S_1  
     e( 14 - 14) =     12.80838  eV     1   --> A_2  D_2  S_2  
     e( 15 - 15) =     12.87896  eV     1   --> B_2  D_4  S_4  
     e( 16 - 16) =     12.96665  eV     1   --> A_1  D_1  S_1  

 **************************************************************************

 **************************************************************************

                    xk=(  -0.31333,   0.54271,   0.00000  )

     Band symmetry, C_2v (mm2)  point group:

     e(  1 -  1) =    -15.48553  eV     1   --> A_1  D_1  S_1  
     e(  2 -  2) =    -14.53701  eV     1   --> B_2  D_4  S_4  
     e(  3 -  3) =    -12.75623  eV     1   --> A_1  D_1  S_1  
     e(  4 -  4) =     -2.94849  eV     1   --> B_1  D_3  S_3  
     e(  5 -  5) =     -1.76842  eV     1   --> A_2  D_2  S_2  
     e(  6 -  6) =      8.31092  eV     1   --> B_1  D_3  S_3  
     e(  7 -  7) =      9.91622  eV     1   --> A_1  D_1  S_1  
     e(  8 -  8) =     10.63416  eV     1   --> B_2  D_4  S_4  
     e(  9 -  9) =     11.04732  eV     1   --> A_1  D_1  S_1  
     e( 10 - 10) =     11.29978  eV     1   --> A_1  D_1  S_1  
     e( 11 - 11) =     11.30476  eV     1   --> B_1  D_3  S_3  
     e( 12 - 12) =     12.36503  eV     1   --> B_1  D_3  S_3  
     e( 13 - 13) =     12.48391  eV     1   --> A_1  D_1  S_1  
     e( 14 - 14) =     13.04600  eV     1   --> A_2  D_2  S_2  
     e( 15 - 15) =     13.08110  eV     1   --> B_2  D_4  S_4  
     e( 16 - 16) =     13.14717  eV     1   --> A_1  D_1  S_1  

 **************************************************************************

 **************************************************************************

                    xk=(  -0.30667,   0.53116,   0.00000  )

     Band symmetry, C_2v (mm2)  point group:

     e(  1 -  1) =    -15.69607  eV     1   --> A_1  D_1  S_1  
     e(  2 -  2) =    -14.38547  eV     1   --> B_2  D_4  S_4  
     e(  3 -  3) =    -12.65188  eV     1   --> A_1  D_1  S_1  
     e(  4 -  4) =     -3.16072  eV     1   --> B_1  D_3  S_3  
     e(  5 -  5) =     -1.55985  eV     1   --> A_2  D_2  S_2  
     e(  6 -  6) =      8.34179  eV     1   --> B_1  D_3  S_3  
     e(  7 -  7) =      9.61239  eV     1   --> A_1  D_1  S_1  
     e(  8 -  8) =     10.64296  eV     1   --> B_2  D_4  S_4  
     e(  9 -  9) =     10.84945  eV     1   --> A_1  D_1  S_1  
     e( 10 - 10) =     10.93693  eV     1   --> B_1  D_3  S_3  
     e( 11 - 11) =     11.05222  eV     1   --> A_1  D_1  S_1  
     e( 12 - 12) =     12.01909  eV     1   --> B_1  D_3  S_3  
     e( 13 - 13) =     12.15014  eV     1   --> A_1  D_1  S_1  
     e( 14 - 14) =     13.28373  eV     1   --> B_2  D_4  S_4  
     e( 15 - 15) =     13.29207  eV     1   --> A_2  D_2  S_2  
     e( 16 - 16) =     13.34284  eV     1   --> A_1  D_1  S_1  

 **************************************************************************

 **************************************************************************

                    xk=(  -0.30000,   0.51962,   0.00000  )

     Band symmetry, C_2v (mm2)  point group:

     e(  1 -  1) =    -15.91511  eV     1   --> A_1  D_1  S_1  
     e(  2 -  2) =    -14.22884  eV     1   --> B_2  D_4  S_4  
     e(  3 -  3) =    -12.53079  eV     1   --> A_1  D_1  S_1  
     e(  4 -  4) =     -3.37839  eV     1   --> B_1  D_3  S_3  
     e(  5 -  5) =     -1.34486  eV     1   --> A_2  D_2  S_2  
     e(  6 -  6) =      8.37016  eV     1   --> B_1  D_3  S_3  
     e(  7 -  7) =      9.28941  eV     1   --> A_1  D_1  S_1  
     e(  8 -  8) =     10.47506  eV     1   --> A_1  D_1  S_1  
     e(  9 -  9) =     10.58196  eV     1   --> B_1  D_3  S_3  
     e( 10 - 10) =     10.63583  eV     1   --> B_2  D_4  S_4  
     e( 11 - 11) =     10.95968  eV     1   --> A_1  D_1  S_1  
     e( 12 - 12) =     11.67644  eV     1   --> B_1  D_3  S_3  
     e( 13 - 13) =     11.80037  eV     1   --> A_1  D_1  S_1  
     e( 14 - 14) =     13.48861  eV     1   --> B_2  D_4  S_4  
     e( 15 - 15) =     13.51886  eV     1   --> A_1  D_1  S_1  
     e( 16 - 16) =     13.53249  eV     1   -->   ?

 **************************************************************************

 **************************************************************************

                    xk=(  -0.29333,   0.50807,   0.00000  )

     Band symmetry, C_2v (mm2)  point group:

     e(  1 -  1) =    -16.13917  eV     1   --> A_1  D_1  S_1  
     e(  2 -  2) =    -14.06717  eV     1   --> B_2  D_4  S_4  
     e(  3 -  3) =    -12.39635  eV     1   --> A_1  D_1  S_1  
     e(  4 -  4) =     -3.60050  eV     1   --> B_1  D_3  S_3  
     e(  5 -  5) =     -1.12358  eV     1   --> A_2  D_2  S_2  
     e(  6 -  6) =      8.38642  eV     1   --> B_1  D_3  S_3  
     e(  7 -  7) =      8.95705  eV     1   --> A_1  D_1  S_1  
     e(  8 -  8) =     10.09357  eV     1   --> A_1  D_1  S_1  
     e(  9 -  9) =     10.24500  eV     1   --> B_1  D_3  S_3  
     e( 10 - 10) =     10.61429  eV     1   --> B_2  D_4  S_4  
     e( 11 - 11) =     10.85118  eV     1   --> A_1  D_1  S_1  
     e( 12 - 12) =     11.34784  eV     1   --> B_1  D_3  S_3  
     e( 13 - 13) =     11.44981  eV     1   --> A_1  D_1  S_1  
     e( 14 - 14) =     13.27548  eV     1   --> B_1  D_3  S_3  
     e( 15 - 15) =     13.49853  eV     1   --> A_1  D_1  S_1  
     e( 16 - 16) =     13.69846  eV     1   --> B_2  D_4  S_4  

 **************************************************************************

 **************************************************************************

                    xk=(  -0.28667,   0.49652,   0.00000  )

     Band symmetry, C_2v (mm2)  point group:

     e(  1 -  1) =    -16.36573  eV     1   --> A_1  D_1  S_1  
     e(  2 -  2) =    -13.90049  eV     1   --> B_2  D_4  S_4  
     e(  3 -  3) =    -12.25098  eV     1   --> A_1  D_1  S_1  
     e(  4 -  4) =     -3.82609  eV     1   --> B_1  D_3  S_3  
     e(  5 -  5) =     -0.89614  eV     1   --> A_2  D_2  S_2  
     e(  6 -  6) =      8.37692  eV     1   --> B_1  D_3  S_3  
     e(  7 -  7) =      8.62118  eV     1   --> A_1  D_1  S_1  
     e(  8 -  8) =      9.71759  eV     1   --> A_1  D_1  S_1  
     e(  9 -  9) =      9.93167  eV     1   --> B_1  D_3  S_3  
     e( 10 - 10) =     10.58013  eV     1   --> B_2  D_4  S_4  
     e( 11 - 11) =     10.71095  eV     1   --> A_1  D_1  S_1  
     e( 12 - 12) =     11.04198  eV     1   --> B_1  D_3  S_3  
     e( 13 - 13) =     11.11032  eV     1   --> A_1  D_1  S_1  
     e( 14 - 14) =     12.97158  eV     1   --> B_1  D_3  S_3  
     e( 15 - 15) =     13.23026  eV     1   --> A_1  D_1  S_1  
     e( 16 - 16) =     13.91577  eV     1   --> B_2  D_4  S_4  

 **************************************************************************

 **************************************************************************

                    xk=(  -0.28000,   0.48497,   0.00000  )

     Band symmetry, C_2v (mm2)  point group:

     e(  1 -  1) =    -16.59295  eV     1   --> A_1  D_1  S_1  
     e(  2 -  2) =    -13.72887  eV     1   --> B_2  D_4  S_4  
     e(  3 -  3) =    -12.09645  eV     1   --> A_1  D_1  S_1  
     e(  4 -  4) =     -4.05421  eV     1   --> B_1  D_3  S_3  
     e(  5 -  5) =     -0.66269  eV     1   --> A_2  D_2  S_2  
     e(  6 -  6) =      8.28543  eV     1   --> A_1  D_1  S_1  
     e(  7 -  7) =      8.32456  eV     1   --> B_1  D_3  S_3  
     e(  8 -  8) =      9.34895  eV     1   --> A_1  D_1  S_1  
     e(  9 -  9) =      9.64682  eV     1   --> B_1  D_3  S_3  
     e( 10 - 10) =     10.52293  eV     1   --> A_1  D_1  S_1  
     e( 11 - 11) =     10.53525  eV     1   --> B_2  D_4  S_4  
     e( 12 - 12) =     10.76909  eV     1   --> B_1  D_3  S_3  
     e( 13 - 13) =     10.80303  eV     1   --> A_1  D_1  S_1  
     e( 14 - 14) =     12.66581  eV     1   --> B_1  D_3  S_3  
     e( 15 - 15) =     12.91521  eV     1   --> A_1  D_1  S_1  
     e( 16 - 16) =     14.14203  eV     1   --> B_2  D_4  S_4  

 **************************************************************************

 **************************************************************************

                    xk=(  -0.27333,   0.47343,   0.00000  )

     Band symmetry, C_2v (mm2)  point group:

     e(  1 -  1) =    -16.81955  eV     1   --> A_1  D_1  S_1  
     e(  2 -  2) =    -13.55235  eV     1   --> B_2  D_4  S_4  
     e(  3 -  3) =    -11.93408  eV     1   --> A_1  D_1  S_1  
     e(  4 -  4) =     -4.28400  eV     1   --> B_1  D_3  S_3  
     e(  5 -  5) =     -0.42338  eV     1   --> A_2  D_2  S_2  
     e(  6 -  6) =      7.95216  eV     1   --> A_1  D_1  S_1  
     e(  7 -  7) =      8.21417  eV     1   --> B_1  D_3  S_3  
     e(  8 -  8) =      8.98822  eV     1   --> A_1  D_1  S_1  
     e(  9 -  9) =      9.38952  eV     1   --> B_1  D_3  S_3  
     e( 10 - 10) =     10.26372  eV     1   --> A_1  D_1  S_1  
     e( 11 - 11) =     10.48144  eV     1   --> B_2  D_4  S_4  
     e( 12 - 12) =     10.54075  eV     1   --> B_1  D_3  S_3  
     e( 13 - 13) =     10.55650  eV     1   --> A_1  D_1  S_1  
     e( 14 - 14) =     12.37241  eV     1   --> B_1  D_3  S_3  
     e( 15 - 15) =     12.59016  eV     1   --> A_1  D_1  S_1  
     e( 16 - 16) =     14.37769  eV     1   --> B_2  D_4  S_4  

 **************************************************************************

 **************************************************************************

                    xk=(  -0.26667,   0.46188,   0.00000  )

     Band symmetry, C_2v (mm2)  point group:

     e(  1 -  1) =    -17.04448  eV     1   --> A_1  D_1  S_1  
     e(  2 -  2) =    -13.37100  eV     1   --> B_2  D_4  S_4  
     e(  3 -  3) =    -11.76487  eV     1   --> A_1  D_1  S_1  
     e(  4 -  4) =     -4.51464  eV     1   --> B_1  D_3  S_3  
     e(  5 -  5) =     -0.17838  eV     1   --> A_2  D_2  S_2  
     e(  6 -  6) =      7.62294  eV     1   --> A_1  D_1  S_1  
     e(  7 -  7) =      8.04248  eV     1   --> B_1  D_3  S_3  
     e(  8 -  8) =      8.63570  eV     1   --> A_1  D_1  S_1  
     e(  9 -  9) =      9.14791  eV     1   --> B_1  D_3  S_3  
     e( 10 - 10) =      9.95561  eV     1   --> A_1  D_1  S_1  
     e( 11 - 11) =     10.35291  eV     1   --> A_1  D_1  S_1  
     e( 12 - 12) =     10.36466  eV     1   --> B_1  D_3  S_3  
     e( 13 - 13) =     10.42032  eV     1   --> B_2  D_4  S_4  
     e( 14 - 14) =     12.10142  eV     1   --> B_1  D_3  S_3  
     e( 15 - 15) =     12.26422  eV     1   --> A_1  D_1  S_1  
     e( 16 - 16) =     14.62235  eV     1   --> B_2  D_4  S_4  

 **************************************************************************

 **************************************************************************

                    xk=(  -0.26000,   0.45033,   0.00000  )

     Band symmetry, C_2v (mm2)  point group:

     e(  1 -  1) =    -17.26700  eV     1   --> A_1  D_1  S_1  
     e(  2 -  2) =    -13.18484  eV     1   --> B_2  D_4  S_4  
     e(  3 -  3) =    -11.58962  eV     1   --> A_1  D_1  S_1  
     e(  4 -  4) =     -4.74536  eV     1   --> B_1  D_3  S_3  
     e(  5 -  5) =      0.07214  eV     1   --> A_2  D_2  S_2  
     e(  6 -  6) =      7.29885  eV     1   --> A_1  D_1  S_1  
     e(  7 -  7) =      7.82114  eV     1   --> B_1  D_3  S_3  
     e(  8 -  8) =      8.29154  eV     1   --> A_1  D_1  S_1  
     e(  9 -  9) =      8.90485  eV     1   --> B_1  D_3  S_3  
     e( 10 - 10) =      9.63404  eV     1   --> A_1  D_1  S_1  
     e( 11 - 11) =     10.16061  eV     1   --> A_1  D_1  S_1  
     e( 12 - 12) =     10.23488  eV     1   --> B_1  D_3  S_3  
     e( 13 - 13) =     10.35328  eV     1   --> B_2  D_4  S_4  
     e( 14 - 14) =     11.86417  eV     1   --> B_1  D_3  S_3  
     e( 15 - 15) =     11.94115  eV     1   --> A_1  D_1  S_1  
     e( 16 - 16) =     14.50047  eV     1   --> B_1  D_3  S_3  

 **************************************************************************

 **************************************************************************

                    xk=(  -0.25333,   0.43879,   0.00000  )

     Band symmetry, C_2v (mm2)  point group:

     e(  1 -  1) =    -17.48647  eV     1   --> A_1  D_1  S_1  
     e(  2 -  2) =    -12.99398  eV     1   --> B_2  D_4  S_4  
     e(  3 -  3) =    -11.40899  eV     1   --> A_1  D_1  S_1  
     e(  4 -  4) =     -4.97545  eV     1   --> B_1  D_3  S_3  
     e(  5 -  5) =      0.32798  eV     1   --> A_2  D_2  S_2  
     e(  6 -  6) =      6.98068  eV     1   --> A_1  D_1  S_1  
     e(  7 -  7) =      7.56771  eV     1   --> B_1  D_3  S_3  
     e(  8 -  8) =      7.95584  eV     1   --> A_1  D_1  S_1  
     e(  9 -  9) =      8.65058  eV     1   --> B_1  D_3  S_3  
     e( 10 - 10) =      9.31257  eV     1   --> A_1  D_1  S_1  
     e( 11 - 11) =      9.96916  eV     1   --> A_1  D_1  S_1  
     e( 12 - 12) =     10.12806  eV     1   --> B_1  D_3  S_3  
     e( 13 - 13) =     10.28148  eV     1   --> B_2  D_4  S_4  
     e( 14 - 14) =     11.62287  eV     1   --> A_1  D_1  S_1  
     e( 15 - 15) =     11.67444  eV     1   --> B_1  D_3  S_3  
     e( 16 - 16) =     14.24404  eV     1   --> B_1  D_3  S_3  

 **************************************************************************

 **************************************************************************

                    xk=(  -0.24667,   0.42724,   0.00000  )

     Band symmetry, C_2v (mm2)  point group:

     e(  1 -  1) =    -17.70246  eV     1   --> A_1  D_1  S_1  
     e(  2 -  2) =    -12.79848  eV     1   --> B_2  D_4  S_4  
     e(  3 -  3) =    -11.22354  eV     1   --> A_1  D_1  S_1  
     e(  4 -  4) =     -5.20428  eV     1   --> B_1  D_3  S_3  
     e(  5 -  5) =      0.58893  eV     1   --> A_2  D_2  S_2  
     e(  6 -  6) =      6.66899  eV     1   --> A_1  D_1  S_1  
     e(  7 -  7) =      7.29680  eV     1   --> B_1  D_3  S_3  
     e(  8 -  8) =      7.62867  eV     1   --> A_1  D_1  S_1  
     e(  9 -  9) =      8.38515  eV     1   --> B_1  D_3  S_3  
     e( 10 - 10) =      8.99564  eV     1   --> A_1  D_1  S_1  
     e( 11 - 11) =      9.77666  eV     1   --> A_1  D_1  S_1  
     e( 12 - 12) =     10.01334  eV     1   --> B_1  D_3  S_3  
     e( 13 - 13) =     10.20590  eV     1   --> B_2  D_4  S_4  
     e( 14 - 14) =     11.31056  eV     1   --> A_1  D_1  S_1  
     e( 15 - 15) =     11.54493  eV     1   --> B_1  D_3  S_3  
     e( 16 - 16) =     13.99229  eV     1   --> B_1  D_3  S_3  

 **************************************************************************

 **************************************************************************

                    xk=(  -0.24000,   0.41569,   0.00000  )

     Band symmetry, C_2v (mm2)  point group:

     e(  1 -  1) =    -17.91456  eV     1   --> A_1  D_1  S_1  
     e(  2 -  2) =    -12.59845  eV     1   --> B_2  D_4  S_4  
     e(  3 -  3) =    -11.03378  eV     1   --> A_1  D_1  S_1  
     e(  4 -  4) =     -5.43124  eV     1   --> B_1  D_3  S_3  
     e(  5 -  5) =      0.85474  eV     1   --> A_2  D_2  S_2  
     e(  6 -  6) =      6.36418  eV     1   --> A_1  D_1  S_1  
     e(  7 -  7) =      7.01804  eV     1   --> B_1  D_3  S_3  
     e(  8 -  8) =      7.31008  eV     1   --> A_1  D_1  S_1  
     e(  9 -  9) =      8.11280  eV     1   --> B_1  D_3  S_3  
     e( 10 - 10) =      8.68503  eV     1   --> A_1  D_1  S_1  
     e( 11 - 11) =      9.58337  eV     1   --> A_1  D_1  S_1  
     e( 12 - 12) =      9.86856  eV     1   --> B_1  D_3  S_3  
     e( 13 - 13) =     10.12726  eV     1   --> B_2  D_4  S_4  
     e( 14 - 14) =     11.00493  eV     1   --> A_1  D_1  S_1  
     e( 15 - 15) =     11.47829  eV     1   --> B_1  D_3  S_3  
     e( 16 - 16) =     13.75744  eV     1   --> B_1  D_3  S_3  

 **************************************************************************

 **************************************************************************

                    xk=(  -0.23333,   0.40415,   0.00000  )

     Band symmetry, C_2v (mm2)  point group:

     e(  1 -  1) =    -18.12246  eV     1   --> A_1  D_1  S_1  
     e(  2 -  2) =    -12.39396  eV     1   --> B_2  D_4  S_4  
     e(  3 -  3) =    -10.84014  eV     1   --> A_1  D_1  S_1  
     e(  4 -  4) =     -5.65580  eV     1   --> B_1  D_3  S_3  
     e(  5 -  5) =      1.12519  eV     1   --> A_2  D_2  S_2  
     e(  6 -  6) =      6.06659  eV     1   --> A_1  D_1  S_1  
     e(  7 -  7) =      6.73730  eV     1   --> B_1  D_3  S_3  
     e(  8 -  8) =      7.00010  eV     1   --> A_1  D_1  S_1  
     e(  9 -  9) =      7.83785  eV     1   --> B_1  D_3  S_3  
     e( 10 - 10) =      8.38159  eV     1   --> A_1  D_1  S_1  
     e( 11 - 11) =      9.39016  eV     1   --> A_1  D_1  S_1  
     e( 12 - 12) =      9.68882  eV     1   --> B_1  D_3  S_3  
     e( 13 - 13) =     10.04622  eV     1   --> B_2  D_4  S_4  
     e( 14 - 14) =     10.70651  eV     1   --> A_1  D_1  S_1  
     e( 15 - 15) =     11.46043  eV     1   --> B_1  D_3  S_3  
     e( 16 - 16) =     13.55029  eV     1   --> B_1  D_3  S_3  

 **************************************************************************

 **************************************************************************

                    xk=(  -0.22667,   0.39260,   0.00000  )

     Band symmetry, C_2v (mm2)  point group:

     e(  1 -  1) =    -18.32586  eV     1   --> A_1  D_1  S_1  
     e(  2 -  2) =    -12.18512  eV     1   --> B_2  D_4  S_4  
     e(  3 -  3) =    -10.64305  eV     1   --> A_1  D_1  S_1  
     e(  4 -  4) =     -5.87746  eV     1   --> B_1  D_3  S_3  
     e(  5 -  5) =      1.39999  eV     1   --> A_2  D_2  S_2  
     e(  6 -  6) =      5.77645  eV     1   --> A_1  D_1  S_1  
     e(  7 -  7) =      6.45814  eV     1   --> B_1  D_3  S_3  
     e(  8 -  8) =      6.69876  eV     1   --> A_1  D_1  S_1  
     e(  9 -  9) =      7.56361  eV     1   --> B_1  D_3  S_3  
     e( 10 - 10) =      8.08579  eV     1   --> A_1  D_1  S_1  
     e( 11 - 11) =      9.19795  eV     1   --> A_1  D_1  S_1  
     e( 12 - 12) =      9.48151  eV     1   --> B_1  D_3  S_3  
     e( 13 - 13) =      9.96325  eV     1   --> B_2  D_4  S_4  
     e( 14 - 14) =     10.41563  eV     1   --> A_1  D_1  S_1  
     e( 15 - 15) =     11.46444  eV     1   --> B_1  D_3  S_3  
     e( 16 - 16) =     13.38366  eV     1   --> B_1  D_3  S_3  

 **************************************************************************

 **************************************************************************

                    xk=(  -0.22000,   0.38105,   0.00000  )

     Band symmetry, C_2v (mm2)  point group:

     e(  1 -  1) =    -18.52461  eV     1   --> A_1  D_1  S_1  
     e(  2 -  2) =    -11.97206  eV     1   --> B_2  D_4  S_4  
     e(  3 -  3) =    -10.44293  eV     1   --> A_1  D_1  S_1  
     e(  4 -  4) =     -6.09577  eV     1   --> B_1  D_3  S_3  
     e(  5 -  5) =      1.67885  eV     1   --> A_2  D_2  S_2  
     e(  6 -  6) =      5.49397  eV     1   --> A_1  D_1  S_1  
     e(  7 -  7) =      6.18276  eV     1   --> B_1  D_3  S_3  
     e(  8 -  8) =      6.40608  eV     1   --> A_1  D_1  S_1  
     e(  9 -  9) =      7.29235  eV     1   --> B_1  D_3  S_3  
     e( 10 - 10) =      7.79791  eV     1   --> A_1  D_1  S_1  
     e( 11 - 11) =      9.00757  eV     1   --> A_1  D_1  S_1  
     e( 12 - 12) =      9.25684  eV     1   --> B_1  D_3  S_3  
     e( 13 - 13) =      9.87869  eV     1   --> B_2  D_4  S_4  
     e( 14 - 14) =     10.13258  eV     1   --> A_1  D_1  S_1  
     e( 15 - 15) =     11.45978  eV     1   --> B_1  D_3  S_3  
     e( 16 - 16) =     13.19186  eV     1   --> A_1  D_1  S_1  

 **************************************************************************

 **************************************************************************

                    xk=(  -0.21333,   0.36950,   0.00000  )

     Band symmetry, C_2v (mm2)  point group:

     e(  1 -  1) =    -18.71848  eV     1   --> A_1  D_1  S_1  
     e(  2 -  2) =    -11.75489  eV     1   --> B_2  D_4  S_4  
     e(  3 -  3) =    -10.24015  eV     1   --> A_1  D_1  S_1  
     e(  4 -  4) =     -6.31033  eV     1   --> B_1  D_3  S_3  
     e(  5 -  5) =      1.96146  eV     1   --> A_2  D_2  S_2  
     e(  6 -  6) =      5.21929  eV     1   --> A_1  D_1  S_1  
     e(  7 -  7) =      5.91256  eV     1   --> B_1  D_3  S_3  
     e(  8 -  8) =      6.12207  eV     1   --> A_1  D_1  S_1  
     e(  9 -  9) =      7.02564  eV     1   --> B_1  D_3  S_3  
     e( 10 - 10) =      7.51814  eV     1   --> A_1  D_1  S_1  
     e( 11 - 11) =      8.81982  eV     1   --> A_1  D_1  S_1  
     e( 12 - 12) =      9.02309  eV     1   --> B_1  D_3  S_3  
     e( 13 - 13) =      9.79280  eV     1   --> B_2  D_4  S_4  
     e( 14 - 14) =      9.85756  eV     1   --> A_1  D_1  S_1  
     e( 15 - 15) =     11.42129  eV     1   --> B_1  D_3  S_3  
     e( 16 - 16) =     12.92276  eV     1   --> A_1  D_1  S_1  

 **************************************************************************

 **************************************************************************

                    xk=(  -0.20667,   0.35796,   0.00000  )

     Band symmetry, C_2v (mm2)  point group:

     e(  1 -  1) =    -18.90731  eV     1   --> A_1  D_1  S_1  
     e(  2 -  2) =    -11.53377  eV     1   --> B_2  D_4  S_4  
     e(  3 -  3) =    -10.03513  eV     1   --> A_1  D_1  S_1  
     e(  4 -  4) =     -6.52076  eV     1   --> B_1  D_3  S_3  
     e(  5 -  5) =      2.24745  eV     1   --> A_2  D_2  S_2  
     e(  6 -  6) =      4.95254  eV     1   --> A_1  D_1  S_1  
     e(  7 -  7) =      5.64849  eV     1   --> B_1  D_3  S_3  
     e(  8 -  8) =      5.84676  eV     1   --> A_1  D_1  S_1  
     e(  9 -  9) =      6.76453  eV     1   --> B_1  D_3  S_3  
     e( 10 - 10) =      7.24660  eV     1   --> A_1  D_1  S_1  
     e( 11 - 11) =      8.63532  eV     1   --> A_1  D_1  S_1  
     e( 12 - 12) =      8.78594  eV     1   --> B_1  D_3  S_3  
     e( 13 - 13) =      9.59074  eV     1   --> A_1  D_1  S_1  
     e( 14 - 14) =      9.70573  eV     1   --> B_2  D_4  S_4  
     e( 15 - 15) =     11.33746  eV     1   --> B_1  D_3  S_3  
     e( 16 - 16) =     12.66057  eV     1   --> A_1  D_1  S_1  

 **************************************************************************

 **************************************************************************

                    xk=(  -0.20000,   0.34641,   0.00000  )

     Band symmetry, C_2v (mm2)  point group:

     e(  1 -  1) =    -19.09093  eV     1   --> A_1  D_1  S_1  
     e(  2 -  2) =    -11.30887  eV     1   --> B_2  D_4  S_4  
     e(  3 -  3) =     -9.82828  eV     1   --> A_1  D_1  S_1  
     e(  4 -  4) =     -6.72673  eV     1   --> B_1  D_3  S_3  
     e(  5 -  5) =      2.53646  eV     1   --> A_2  D_2  S_2  
     e(  6 -  6) =      4.69383  eV     1   --> A_1  D_1  S_1  
     e(  7 -  7) =      5.39117  eV     1   --> B_1  D_3  S_3  
     e(  8 -  8) =      5.58014  eV     1   --> A_1  D_1  S_1  
     e(  9 -  9) =      6.50976  eV     1   --> B_1  D_3  S_3  
     e( 10 - 10) =      6.98340  eV     1   --> A_1  D_1  S_1  
     e( 11 - 11) =      8.45461  eV     1   --> A_1  D_1  S_1  
     e( 12 - 12) =      8.54910  eV     1   --> B_1  D_3  S_3  
     e( 13 - 13) =      9.33226  eV     1   --> A_1  D_1  S_1  
     e( 14 - 14) =      9.61753  eV     1   --> B_2  D_4  S_4  
     e( 15 - 15) =     11.21194  eV     1   --> B_1  D_3  S_3  
     e( 16 - 16) =     12.40564  eV     1   --> A_1  D_1  S_1  

 **************************************************************************

 **************************************************************************

                    xk=(  -0.19333,   0.33486,   0.00000  )

     Band symmetry, C_2v (mm2)  point group:

     e(  1 -  1) =    -19.26927  eV     1   --> A_1  D_1  S_1  
     e(  2 -  2) =    -11.08034  eV     1   --> B_2  D_4  S_4  
     e(  3 -  3) =     -9.61999  eV     1   --> A_1  D_1  S_1  
     e(  4 -  4) =     -6.92793  eV     1   --> B_1  D_3  S_3  
     e(  5 -  5) =      2.82809  eV     1   --> A_2  D_2  S_2  
     e(  6 -  6) =      4.44323  eV     1   --> A_1  D_1  S_1  
     e(  7 -  7) =      5.14106  eV     1   --> B_1  D_3  S_3  
     e(  8 -  8) =      5.32223  eV     1   --> A_1  D_1  S_1  
     e(  9 -  9) =      6.26187  eV     1   --> B_1  D_3  S_3  
     e( 10 - 10) =      6.72860  eV     1   --> A_1  D_1  S_1  
     e( 11 - 11) =      8.27821  eV     1   --> A_1  D_1  S_1  
     e( 12 - 12) =      8.31498  eV     1   --> B_1  D_3  S_3  
     e( 13 - 13) =      9.08223  eV     1   --> A_1  D_1  S_1  
     e( 14 - 14) =      9.52821  eV     1   --> B_2  D_4  S_4  
     e( 15 - 15) =     11.05617  eV     1   --> B_1  D_3  S_3  
     e( 16 - 16) =     12.15822  eV     1   --> A_1  D_1  S_1  

 **************************************************************************

 **************************************************************************

                    xk=(  -0.18667,   0.32332,   0.00000  )

     Band symmetry, C_2v (mm2)  point group:

     e(  1 -  1) =    -19.44221  eV     1   --> A_1  D_1  S_1  
     e(  2 -  2) =    -10.84842  eV     1   --> B_2  D_4  S_4  
     e(  3 -  3) =     -9.41070  eV     1   --> A_1  D_1  S_1  
     e(  4 -  4) =     -7.12410  eV     1   --> B_1  D_3  S_3  
     e(  5 -  5) =      3.12188  eV     1   --> A_2  D_2  S_2  
     e(  6 -  6) =      4.20081  eV     1   --> A_1  D_1  S_1  
     e(  7 -  7) =      4.89849  eV     1   --> B_1  D_3  S_3  
     e(  8 -  8) =      5.07303  eV     1   --> A_1  D_1  S_1  
     e(  9 -  9) =      6.02124  eV     1   --> B_1  D_3  S_3  
     e( 10 - 10) =      6.48226  eV     1   --> A_1  D_1  S_1  
     e( 11 - 11) =      8.08519  eV     1   --> B_1  D_3  S_3  
     e( 12 - 12) =      8.10645  eV     1   --> A_1  D_1  S_1  
     e( 13 - 13) =      8.84079  eV     1   --> A_1  D_1  S_1  
     e( 14 - 14) =      9.43763  eV     1   --> B_2  D_4  S_4  
     e( 15 - 15) =     10.88167  eV     1   --> B_1  D_3  S_3  
     e( 16 - 16) =     11.91849  eV     1   --> A_1  D_1  S_1  

 **************************************************************************

 **************************************************************************

                    xk=(  -0.18000,   0.31177,   0.00000  )

     Band symmetry, C_2v (mm2)  point group:

     e(  1 -  1) =    -19.60964  eV     1   --> A_1  D_1  S_1  
     e(  2 -  2) =    -10.61332  eV     1   --> B_2  D_4  S_4  
     e(  3 -  3) =     -9.20085  eV     1   --> A_1  D_1  S_1  
     e(  4 -  4) =     -7.31496  eV     1   --> B_1  D_3  S_3  
     e(  5 -  5) =      3.41736  eV     1   --> A_2  D_2  S_2  
     e(  6 -  6) =      3.96664  eV     1   --> A_1  D_1  S_1  
     e(  7 -  7) =      4.66368  eV     1   --> B_1  D_3  S_3  
     e(  8 -  8) =      4.83256  eV     1   --> A_1  D_1  S_1  
     e(  9 -  9) =      5.78816  eV     1   --> B_1  D_3  S_3  
     e( 10 - 10) =      6.24442  eV     1   --> A_1  D_1  S_1  
     e( 11 - 11) =      7.86081  eV     1   --> B_1  D_3  S_3  
     e( 12 - 12) =      7.93969  eV     1   --> A_1  D_1  S_1  
     e( 13 - 13) =      8.60805  eV     1   --> A_1  D_1  S_1  
     e( 14 - 14) =      9.34564  eV     1   --> B_2  D_4  S_4  
     e( 15 - 15) =     10.69711  eV     1   --> B_1  D_3  S_3  
     e( 16 - 16) =     11.68661  eV     1   --> A_1  D_1  S_1  

 **************************************************************************

 **************************************************************************

                    xk=(  -0.17333,   0.30022,   0.00000  )

     Band symmetry, C_2v (mm2)  point group:

     e(  1 -  1) =    -19.77146  eV     1   --> A_1  D_1  S_1  
     e(  2 -  2) =    -10.37528  eV     1   --> B_2  D_4  S_4  
     e(  3 -  3) =     -8.99091  eV     1   --> A_1  D_1  S_1  
     e(  4 -  4) =     -7.50030  eV     1   --> B_1  D_3  S_3  
     e(  5 -  5) =      3.71400  eV     1   --> A_2  D_2  S_2  
     e(  6 -  6) =      3.74077  eV     1   --> A_1  D_1  S_1  
     e(  7 -  7) =      4.43683  eV     1   --> B_1  D_3  S_3  
     e(  8 -  8) =      4.60081  eV     1   --> A_1  D_1  S_1  
     e(  9 -  9) =      5.56285  eV     1   --> B_1  D_3  S_3  
     e( 10 - 10) =      6.01510  eV     1   --> A_1  D_1  S_1  
     e( 11 - 11) =      7.64262  eV     1   --> B_1  D_3  S_3  
     e( 12 - 12) =      7.77815  eV     1   --> A_1  D_1  S_1  
     e( 13 - 13) =      8.38414  eV     1   --> A_1  D_1  S_1  
     e( 14 - 14) =      9.25195  eV     1   --> B_2  D_4  S_4  
     e( 15 - 15) =     10.50834  eV     1   --> B_1  D_3  S_3  
     e( 16 - 16) =     11.46268  eV     1   --> A_1  D_1  S_1  

 **************************************************************************

 **************************************************************************

                    xk=(  -0.16667,   0.28868,   0.00000  )

     Band symmetry, C_2v (mm2)  point group:

     e(  1 -  1) =    -19.92763  eV     1   --> A_1  D_1  S_1  
     e(  2 -  2) =    -10.13463  eV     1   --> B_2  D_4  S_4  
     e(  3 -  3) =     -8.78136  eV     1   --> A_1  D_1  S_1  
     e(  4 -  4) =     -7.67991  eV     1   --> B_1  D_3  S_3  
     e(  5 -  5) =      3.52323  eV     1   --> A_1  D_1  S_1  
     e(  6 -  6) =      4.01123  eV     1   --> A_2  D_2  S_2  
     e(  7 -  7) =      4.21807  eV     1   --> B_1  D_3  S_3  
     e(  8 -  8) =      4.37779  eV     1   --> A_1  D_1  S_1  
     e(  9 -  9) =      5.34547  eV     1   --> B_1  D_3  S_3  
     e( 10 - 10) =      5.79435  eV     1   --> A_1  D_1  S_1  
     e( 11 - 11) =      7.43115  eV     1   --> B_1  D_3  S_3  
     e( 12 - 12) =      7.62201  eV     1   --> A_1  D_1  S_1  
     e( 13 - 13) =      8.16919  eV     1   --> A_1  D_1  S_1  
     e( 14 - 14) =      9.15618  eV     1   --> B_2  D_4  S_4  
     e( 15 - 15) =     10.31920  eV     1   --> B_1  D_3  S_3  
     e( 16 - 16) =     11.24680  eV     1   --> A_1  D_1  S_1  

 **************************************************************************

 **************************************************************************

                    xk=(  -0.16000,   0.27713,   0.00000  )

     Band symmetry, C_2v (mm2)  point group:

     e(  1 -  1) =    -20.07808  eV     1   --> A_1  D_1  S_1  
     e(  2 -  2) =     -9.89164  eV     1   --> B_2  D_4  S_4  
     e(  3 -  3) =     -8.57268  eV     1   --> A_1  D_1  S_1  
     e(  4 -  4) =     -7.85361  eV     1   --> B_1  D_3  S_3  
     e(  5 -  5) =      3.31406  eV     1   --> A_1  D_1  S_1  
     e(  6 -  6) =      4.00751  eV     1   --> B_1  D_3  S_3  
     e(  7 -  7) =      4.16350  eV     1   --> A_1  D_1  S_1  
     e(  8 -  8) =      4.30846  eV     1   --> A_2  D_2  S_2  
     e(  9 -  9) =      5.13615  eV     1   --> B_1  D_3  S_3  
     e( 10 - 10) =      5.58218  eV     1   --> A_1  D_1  S_1  
     e( 11 - 11) =      7.22681  eV     1   --> B_1  D_3  S_3  
     e( 12 - 12) =      7.47138  eV     1   --> A_1  D_1  S_1  
     e( 13 - 13) =      7.96339  eV     1   --> A_1  D_1  S_1  
     e( 14 - 14) =      9.05791  eV     1   --> B_2  D_4  S_4  
     e( 15 - 15) =     10.13221  eV     1   --> B_1  D_3  S_3  
     e( 16 - 16) =     11.03905  eV     1   --> A_1  D_1  S_1  

 **************************************************************************

 **************************************************************************

                    xk=(  -0.15333,   0.26558,   0.00000  )

     Band symmetry, C_2v (mm2)  point group:

     e(  1 -  1) =    -20.22273  eV     1   --> A_1  D_1  S_1  
     e(  2 -  2) =     -9.64668  eV     1   --> B_2  D_4  S_4  
     e(  3 -  3) =     -8.36541  eV     1   --> A_1  D_1  S_1  
     e(  4 -  4) =     -8.02121  eV     1   --> B_1  D_3  S_3  
     e(  5 -  5) =      3.11330  eV     1   --> A_1  D_1  S_1  
     e(  6 -  6) =      3.80523  eV     1   --> B_1  D_3  S_3  
     e(  7 -  7) =      3.95795  eV     1   --> A_1  D_1  S_1  
     e(  8 -  8) =      4.60501  eV     1   --> A_2  D_2  S_2  
     e(  9 -  9) =      4.93500  eV     1   --> B_1  D_3  S_3  
     e( 10 - 10) =      5.37861  eV     1   --> A_1  D_1  S_1  
     e( 11 - 11) =      7.02989  eV     1   --> B_1  D_3  S_3  
     e( 12 - 12) =      7.32628  eV     1   --> A_1  D_1  S_1  
     e( 13 - 13) =      7.76696  eV     1   --> A_1  D_1  S_1  
     e( 14 - 14) =      8.95659  eV     1   --> B_2  D_4  S_4  
     e( 15 - 15) =      9.94908  eV     1   --> B_1  D_3  S_3  
     e( 16 - 16) =     10.83947  eV     1   --> A_1  D_1  S_1  

 **************************************************************************

 **************************************************************************

                    xk=(  -0.14667,   0.25403,   0.00000  )

     Band symmetry, C_2v (mm2)  point group:

     e(  1 -  1) =    -20.36152  eV     1   --> A_1  D_1  S_1  
     e(  2 -  2) =     -9.40015  eV     1   --> B_2  D_4  S_4  
     e(  3 -  3) =     -8.18257  eV     1   --> B_1  D_3  S_3  
     e(  4 -  4) =     -8.16009  eV     1   --> A_1  D_1  S_1  
     e(  5 -  5) =      2.92097  eV     1   --> A_1  D_1  S_1  
     e(  6 -  6) =      3.61131  eV     1   --> B_1  D_3  S_3  
     e(  7 -  7) =      3.76114  eV     1   --> A_1  D_1  S_1  
     e(  8 -  8) =      4.74210  eV     1   --> B_1  D_3  S_3  
     e(  9 -  9) =      4.90017  eV     1   --> A_2  D_2  S_2  
     e( 10 - 10) =      5.18365  eV     1   --> A_1  D_1  S_1  
     e( 11 - 11) =      6.84063  eV     1   --> B_1  D_3  S_3  
     e( 12 - 12) =      7.18661  eV     1   --> A_1  D_1  S_1  
     e( 13 - 13) =      7.58020  eV     1   --> A_1  D_1  S_1  
     e( 14 - 14) =      8.85155  eV     1   --> B_2  D_4  S_4  
     e( 15 - 15) =      9.77097  eV     1   --> B_1  D_3  S_3  
     e( 16 - 16) =     10.64811  eV     1   --> A_1  D_1  S_1  

 **************************************************************************

 **************************************************************************

                    xk=(  -0.14000,   0.24249,   0.00000  )

     Band symmetry, C_2v (mm2)  point group:

     e(  1 -  1) =    -20.49443  eV     1   --> A_1  D_1  S_1  
     e(  2 -  2) =     -9.15252  eV     1   --> B_2  D_4  S_4  
     e(  3 -  3) =     -8.33754  eV     1   --> B_1  D_3  S_3  
     e(  4 -  4) =     -7.95730  eV     1   --> A_1  D_1  S_1  
     e(  5 -  5) =      2.73709  eV     1   --> A_1  D_1  S_1  
     e(  6 -  6) =      3.42580  eV     1   --> B_1  D_3  S_3  
     e(  7 -  7) =      3.57308  eV     1   --> A_1  D_1  S_1  
     e(  8 -  8) =      4.55752  eV     1   --> B_1  D_3  S_3  
     e(  9 -  9) =      4.99733  eV     1   --> A_1  D_1  S_1  
     e( 10 - 10) =      5.19319  eV     1   --> A_2  D_2  S_2  
     e( 11 - 11) =      6.65921  eV     1   --> B_1  D_3  S_3  
     e( 12 - 12) =      7.05211  eV     1   --> A_1  D_1  S_1  
     e( 13 - 13) =      7.40349  eV     1   --> A_1  D_1  S_1  
     e( 14 - 14) =      8.74201  eV     1   --> B_2  D_4  S_4  
     e( 15 - 15) =      9.59870  eV     1   --> B_1  D_3  S_3  
     e( 16 - 16) =     10.46502  eV     1   --> A_1  D_1  S_1  

 **************************************************************************

 **************************************************************************

                    xk=(  -0.13333,   0.23094,   0.00000  )

     Band symmetry, C_2v (mm2)  point group:

     e(  1 -  1) =    -20.62139  eV     1   --> A_1  D_1  S_1  
     e(  2 -  2) =     -8.90428  eV     1   --> B_2  D_4  S_4  
     e(  3 -  3) =     -8.48600  eV     1   --> B_1  D_3  S_3  
     e(  4 -  4) =     -7.75762  eV     1   --> A_1  D_1  S_1  
     e(  5 -  5) =      2.56169  eV     1   --> A_1  D_1  S_1  
     e(  6 -  6) =      3.24874  eV     1   --> B_1  D_3  S_3  
     e(  7 -  7) =      3.39375  eV     1   --> A_1  D_1  S_1  
     e(  8 -  8) =      4.38132  eV     1   --> B_1  D_3  S_3  
     e(  9 -  9) =      4.81964  eV     1   --> A_1  D_1  S_1  
     e( 10 - 10) =      5.48323  eV     1   --> A_2  D_2  S_2  
     e( 11 - 11) =      6.48575  eV     1   --> B_1  D_3  S_3  
     e( 12 - 12) =      6.92245  eV     1   --> A_1  D_1  S_1  
     e( 13 - 13) =      7.23733  eV     1   --> A_1  D_1  S_1  
     e( 14 - 14) =      8.62720  eV     1   --> B_2  D_4  S_4  
     e( 15 - 15) =      9.43287  eV     1   --> B_1  D_3  S_3  
     e( 16 - 16) =     10.29023  eV     1   --> A_1  D_1  S_1  

 **************************************************************************

 **************************************************************************

                    xk=(  -0.12667,   0.21939,   0.00000  )

     Band symmetry, C_2v (mm2)  point group:

     e(  1 -  1) =    -20.74237  eV     1   --> A_1  D_1  S_1  
     e(  2 -  2) =     -8.65602  eV     1   --> B_2  D_4  S_4  
     e(  3 -  3) =     -8.62783  eV     1   --> B_1  D_3  S_3  
     e(  4 -  4) =     -7.56169  eV     1   --> A_1  D_1  S_1  
     e(  5 -  5) =      2.39477  eV     1   --> A_1  D_1  S_1  
     e(  6 -  6) =      3.08018  eV     1   --> B_1  D_3  S_3  
     e(  7 -  7) =      3.22317  eV     1   --> A_1  D_1  S_1  
     e(  8 -  8) =      4.21353  eV     1   --> B_1  D_3  S_3  
     e(  9 -  9) =      4.65060  eV     1   --> A_1  D_1  S_1  
     e( 10 - 10) =      5.76941  eV     1   --> A_2  D_2  S_2  
     e( 11 - 11) =      6.32038  eV     1   --> B_1  D_3  S_3  
     e( 12 - 12) =      6.79708  eV     1   --> A_1  D_1  S_1  
     e( 13 - 13) =      7.08235  eV     1   --> A_1  D_1  S_1  
     e( 14 - 14) =      8.50621  eV     1   --> B_2  D_4  S_4  
     e( 15 - 15) =      9.27392  eV     1   --> B_1  D_3  S_3  
     e( 16 - 16) =     10.12376  eV     1   --> A_1  D_1  S_1  

 **************************************************************************

 **************************************************************************

                    xk=(  -0.12000,   0.20785,   0.00000  )

     Band symmetry, C_2v (mm2)  point group:

     e(  1 -  1) =    -20.85733  eV     1   --> A_1  D_1  S_1  
     e(  2 -  2) =     -8.76291  eV     1   --> B_1  D_3  S_3  
     e(  3 -  3) =     -8.40836  eV     1   --> B_2  D_4  S_4  
     e(  4 -  4) =     -7.37012  eV     1   --> A_1  D_1  S_1  
     e(  5 -  5) =      2.23637  eV     1   --> A_1  D_1  S_1  
     e(  6 -  6) =      2.92014  eV     1   --> B_1  D_3  S_3  
     e(  7 -  7) =      3.06134  eV     1   --> A_1  D_1  S_1  
     e(  8 -  8) =      4.05421  eV     1   --> B_1  D_3  S_3  
     e(  9 -  9) =      4.49022  eV     1   --> A_1  D_1  S_1  
     e( 10 - 10) =      6.05082  eV     1   --> A_2  D_2  S_2  
     e( 11 - 11) =      6.16318  eV     1   --> B_1  D_3  S_3  
     e( 12 - 12) =      6.67541  eV     1   --> A_1  D_1  S_1  
     e( 13 - 13) =      6.93923  eV     1   --> A_1  D_1  S_1  
     e( 14 - 14) =      8.37817  eV     1   --> B_2  D_4  S_4  
     e( 15 - 15) =      9.12219  eV     1   --> B_1  D_3  S_3  
     e( 16 - 16) =      9.96564  eV     1   --> A_1  D_1  S_1  

 **************************************************************************

 **************************************************************************

                    xk=(  -0.11333,   0.19630,   0.00000  )

     Band symmetry, C_2v (mm2)  point group:

     e(  1 -  1) =    -20.96624  eV     1   --> A_1  D_1  S_1  
     e(  2 -  2) =     -8.89116  eV     1   --> B_1  D_3  S_3  
     e(  3 -  3) =     -8.16206  eV     1   --> B_2  D_4  S_4  
     e(  4 -  4) =     -7.18359  eV     1   --> A_1  D_1  S_1  
     e(  5 -  5) =      2.08649  eV     1   --> A_1  D_1  S_1  
     e(  6 -  6) =      2.76865  eV     1   --> B_1  D_3  S_3  
     e(  7 -  7) =      2.90825  eV     1   --> A_1  D_1  S_1  
     e(  8 -  8) =      3.90337  eV     1   --> B_1  D_3  S_3  
     e(  9 -  9) =      4.33850  eV     1   --> A_1  D_1  S_1  
     e( 10 - 10) =      6.01423  eV     1   --> B_1  D_3  S_3  
     e( 11 - 11) =      6.32644  eV     1   --> A_2  D_2  S_2  
     e( 12 - 12) =      6.55689  eV     1   --> A_1  D_1  S_1  
     e( 13 - 13) =      6.80852  eV     1   --> A_1  D_1  S_1  
     e( 14 - 14) =      8.24231  eV     1   --> B_2  D_4  S_4  
     e( 15 - 15) =      8.97792  eV     1   --> B_1  D_3  S_3  
     e( 16 - 16) =      9.81589  eV     1   --> A_1  D_1  S_1  

 **************************************************************************

 **************************************************************************

                    xk=(  -0.10667,   0.18475,   0.00000  )

     Band symmetry, C_2v (mm2)  point group:

     e(  1 -  1) =    -21.06906  eV     1   --> A_1  D_1  S_1  
     e(  2 -  2) =     -9.01249  eV     1   --> B_1  D_3  S_3  
     e(  3 -  3) =     -7.91791  eV     1   --> B_2  D_4  S_4  
     e(  4 -  4) =     -7.00275  eV     1   --> A_1  D_1  S_1  
     e(  5 -  5) =      1.94514  eV     1   --> A_1  D_1  S_1  
     e(  6 -  6) =      2.62574  eV     1   --> B_1  D_3  S_3  
     e(  7 -  7) =      2.76391  eV     1   --> A_1  D_1  S_1  
     e(  8 -  8) =      3.76106  eV     1   --> B_1  D_3  S_3  
     e(  9 -  9) =      4.19545  eV     1   --> A_1  D_1  S_1  
     e( 10 - 10) =      5.87358  eV     1   --> B_1  D_3  S_3  
     e( 11 - 11) =      6.44135  eV     1   --> A_1  D_1  S_1  
     e( 12 - 12) =      6.59525  eV     1   --> A_2  D_2  S_2  
     e( 13 - 13) =      6.69042  eV     1   --> A_1  D_1  S_1  
     e( 14 - 14) =      8.09808  eV     1   --> B_2  D_4  S_4  
     e( 15 - 15) =      8.84132  eV     1   --> B_1  D_3  S_3  
     e( 16 - 16) =      9.67452  eV     1   --> A_1  D_1  S_1  

 **************************************************************************

 **************************************************************************

                    xk=(  -0.10000,   0.17321,   0.00000  )

     Band symmetry, C_2v (mm2)  point group:

     e(  1 -  1) =    -21.16577  eV     1   --> A_1  D_1  S_1  
     e(  2 -  2) =     -9.12681  eV     1   --> B_1  D_3  S_3  
     e(  3 -  3) =     -7.67685  eV     1   --> B_2  D_4  S_4  
     e(  4 -  4) =     -6.82829  eV     1   --> A_1  D_1  S_1  
     e(  5 -  5) =      1.81233  eV     1   --> A_1  D_1  S_1  
     e(  6 -  6) =      2.49142  eV     1   --> B_1  D_3  S_3  
     e(  7 -  7) =      2.62832  eV     1   --> A_1  D_1  S_1  
     e(  8 -  8) =      3.62728  eV     1   --> B_1  D_3  S_3  
     e(  9 -  9) =      4.06107  eV     1   --> A_1  D_1  S_1  
     e( 10 - 10) =      5.74129  eV     1   --> B_1  D_3  S_3  
     e( 11 - 11) =      6.32908  eV     1   --> A_1  D_1  S_1  
     e( 12 - 12) =      6.58461  eV     1   --> A_1  D_1  S_1  
     e( 13 - 13) =      6.85614  eV     1   --> A_2  D_2  S_2  
     e( 14 - 14) =      7.94525  eV     1   --> B_2  D_4  S_4  
     e( 15 - 15) =      8.71254  eV     1   --> B_1  D_3  S_3  
     e( 16 - 16) =      9.54156  eV     1   --> A_1  D_1  S_1  

 **************************************************************************

 **************************************************************************

                    xk=(  -0.09333,   0.16166,   0.00000  )

     Band symmetry, C_2v (mm2)  point group:

     e(  1 -  1) =    -21.25635  eV     1   --> A_1  D_1  S_1  
     e(  2 -  2) =     -9.23406  eV     1   --> B_1  D_3  S_3  
     e(  3 -  3) =     -7.43990  eV     1   --> B_2  D_4  S_4  
     e(  4 -  4) =     -6.66091  eV     1   --> A_1  D_1  S_1  
     e(  5 -  5) =      1.68807  eV     1   --> A_1  D_1  S_1  
     e(  6 -  6) =      2.36572  eV     1   --> B_1  D_3  S_3  
     e(  7 -  7) =      2.50148  eV     1   --> A_1  D_1  S_1  
     e(  8 -  8) =      3.50207  eV     1   --> B_1  D_3  S_3  
     e(  9 -  9) =      3.93536  eV     1   --> A_1  D_1  S_1  
     e( 10 - 10) =      5.61739  eV     1   --> B_1  D_3  S_3  
     e( 11 - 11) =      6.22080  eV     1   --> A_1  D_1  S_1  
     e( 12 - 12) =      6.49028  eV     1   --> A_1  D_1  S_1  
     e( 13 - 13) =      7.10797  eV     1   --> A_2  D_2  S_2  
     e( 14 - 14) =      7.78407  eV     1   --> B_2  D_4  S_4  
     e( 15 - 15) =      8.59170  eV     1   --> B_1  D_3  S_3  
     e( 16 - 16) =      9.41703  eV     1   --> A_1  D_1  S_1  

 **************************************************************************

 **************************************************************************

                    xk=(  -0.08667,   0.15011,   0.00000  )

     Band symmetry, C_2v (mm2)  point group:

     e(  1 -  1) =    -21.34078  eV     1   --> A_1  D_1  S_1  
     e(  2 -  2) =     -9.33416  eV     1   --> B_1  D_3  S_3  
     e(  3 -  3) =     -7.20822  eV     1   --> B_2  D_4  S_4  
     e(  4 -  4) =     -6.50129  eV     1   --> A_1  D_1  S_1  
     e(  5 -  5) =      1.57237  eV     1   --> A_1  D_1  S_1  
     e(  6 -  6) =      2.24863  eV     1   --> B_1  D_3  S_3  
     e(  7 -  7) =      2.38339  eV     1   --> A_1  D_1  S_1  
     e(  8 -  8) =      3.38543  eV     1   --> B_1  D_3  S_3  
     e(  9 -  9) =      3.81832  eV     1   --> A_1  D_1  S_1  
     e( 10 - 10) =      5.50193  eV     1   --> B_1  D_3  S_3  
     e( 11 - 11) =      6.11743  eV     1   --> A_1  D_1  S_1  
     e( 12 - 12) =      6.40642  eV     1   --> A_1  D_1  S_1  
     e( 13 - 13) =      7.34957  eV     1   --> A_2  D_2  S_2  
     e( 14 - 14) =      7.61541  eV     1   --> B_2  D_4  S_4  
     e( 15 - 15) =      8.47890  eV     1   --> B_1  D_3  S_3  
     e( 16 - 16) =      9.30093  eV     1   --> A_1  D_1  S_1  

 **************************************************************************

 **************************************************************************

                    xk=(  -0.08000,   0.13856,   0.00000  )

     Band symmetry, C_2v (mm2)  point group:

     e(  1 -  1) =    -21.41901  eV     1   --> A_1  D_1  S_1  
     e(  2 -  2) =     -9.42707  eV     1   --> B_1  D_3  S_3  
     e(  3 -  3) =     -6.98310  eV     1   --> B_2  D_4  S_4  
     e(  4 -  4) =     -6.35012  eV     1   --> A_1  D_1  S_1  
     e(  5 -  5) =      1.46524  eV     1   --> A_1  D_1  S_1  
     e(  6 -  6) =      2.14018  eV     1   --> B_1  D_3  S_3  
     e(  7 -  7) =      2.27405  eV     1   --> A_1  D_1  S_1  
     e(  8 -  8) =      3.27739  eV     1   --> B_1  D_3  S_3  
     e(  9 -  9) =      3.70997  eV     1   --> A_1  D_1  S_1  
     e( 10 - 10) =      5.39493  eV     1   --> B_1  D_3  S_3  
     e( 11 - 11) =      6.01982  eV     1   --> A_1  D_1  S_1  
     e( 12 - 12) =      6.33204  eV     1   --> A_1  D_1  S_1  
     e( 13 - 13) =      7.44078  eV     1   --> B_2  D_4  S_4  
     e( 14 - 14) =      7.57973  eV     1   --> A_2  D_2  S_2  
     e( 15 - 15) =      8.37423  eV     1   --> B_1  D_3  S_3  
     e( 16 - 16) =      9.19329  eV     1   --> A_1  D_1  S_1  

 **************************************************************************

 **************************************************************************

                    xk=(  -0.07333,   0.12702,   0.00000  )

     Band symmetry, C_2v (mm2)  point group:

     e(  1 -  1) =    -21.49106  eV     1   --> A_1  D_1  S_1  
     e(  2 -  2) =     -9.51272  eV     1   --> B_1  D_3  S_3  
     e(  3 -  3) =     -6.76597  eV     1   --> B_2  D_4  S_4  
     e(  4 -  4) =     -6.20809  eV     1   --> A_1  D_1  S_1  
     e(  5 -  5) =      1.36667  eV     1   --> A_1  D_1  S_1  
     e(  6 -  6) =      2.04037  eV     1   --> B_1  D_3  S_3  
     e(  7 -  7) =      2.17346  eV     1   --> A_1  D_1  S_1  
     e(  8 -  8) =      3.17795  eV     1   --> B_1  D_3  S_3  
     e(  9 -  9) =      3.61029  eV     1   --> A_1  D_1  S_1  
     e( 10 - 10) =      5.29642  eV     1   --> B_1  D_3  S_3  
     e( 11 - 11) =      5.92869  eV     1   --> A_1  D_1  S_1  
     e( 12 - 12) =      6.26627  eV     1   --> A_1  D_1  S_1  
     e( 13 - 13) =      7.26238  eV     1   --> B_2  D_4  S_4  
     e( 14 - 14) =      7.79725  eV     1   --> A_2  D_2  S_2  
     e( 15 - 15) =      8.27775  eV     1   --> B_1  D_3  S_3  
     e( 16 - 16) =      9.09414  eV     1   --> A_1  D_1  S_1  

 **************************************************************************

 **************************************************************************

                    xk=(  -0.06667,   0.11547,   0.00000  )

     Band symmetry, C_2v (mm2)  point group:

     e(  1 -  1) =    -21.55690  eV     1   --> A_1  D_1  S_1  
     e(  2 -  2) =     -9.59108  eV     1   --> B_1  D_3  S_3  
     e(  3 -  3) =     -6.55839  eV     1   --> B_2  D_4  S_4  
     e(  4 -  4) =     -6.07585  eV     1   --> A_1  D_1  S_1  
     e(  5 -  5) =      1.27667  eV     1   --> A_1  D_1  S_1  
     e(  6 -  6) =      1.94922  eV     1   --> B_1  D_3  S_3  
     e(  7 -  7) =      2.08162  eV     1   --> A_1  D_1  S_1  
     e(  8 -  8) =      3.08713  eV     1   --> B_1  D_3  S_3  
     e(  9 -  9) =      3.51928  eV     1   --> A_1  D_1  S_1  
     e( 10 - 10) =      5.20642  eV     1   --> B_1  D_3  S_3  
     e( 11 - 11) =      5.84456  eV     1   --> A_1  D_1  S_1  
     e( 12 - 12) =      6.20837  eV     1   --> A_1  D_1  S_1  
     e( 13 - 13) =      7.08295  eV     1   --> B_2  D_4  S_4  
     e( 14 - 14) =      8.00091  eV     1   --> A_2  D_2  S_2  
     e( 15 - 15) =      8.18952  eV     1   --> B_1  D_3  S_3  
     e( 16 - 16) =      9.00348  eV     1   --> A_1  D_1  S_1  

 **************************************************************************

 **************************************************************************

                    xk=(  -0.06000,   0.10392,   0.00000  )

     Band symmetry, C_2v (mm2)  point group:

     e(  1 -  1) =    -21.61650  eV     1   --> A_1  D_1  S_1  
     e(  2 -  2) =     -9.66209  eV     1   --> B_1  D_3  S_3  
     e(  3 -  3) =     -6.36206  eV     1   --> B_2  D_4  S_4  
     e(  4 -  4) =     -5.95403  eV     1   --> A_1  D_1  S_1  
     e(  5 -  5) =      1.19524  eV     1   --> A_1  D_1  S_1  
     e(  6 -  6) =      1.86673  eV     1   --> B_1  D_3  S_3  
     e(  7 -  7) =      1.99853  eV     1   --> A_1  D_1  S_1  
     e(  8 -  8) =      3.00493  eV     1   --> B_1  D_3  S_3  
     e(  9 -  9) =      3.43696  eV     1   --> A_1  D_1  S_1  
     e( 10 - 10) =      5.12494  eV     1   --> B_1  D_3  S_3  
     e( 11 - 11) =      5.76781  eV     1   --> A_1  D_1  S_1  
     e( 12 - 12) =      6.15775  eV     1   --> A_1  D_1  S_1  
     e( 13 - 13) =      6.90570  eV     1   --> B_2  D_4  S_4  
     e( 14 - 14) =      8.10958  eV     1   --> B_1  D_3  S_3  
     e( 15 - 15) =      8.18951  eV     1   --> A_2  D_2  S_2  
     e( 16 - 16) =      8.92135  eV     1   --> A_1  D_1  S_1  

 **************************************************************************

 **************************************************************************

                    xk=(  -0.05333,   0.09238,   0.00000  )

     Band symmetry, C_2v (mm2)  point group:

     e(  1 -  1) =    -21.66987  eV     1   --> A_1  D_1  S_1  
     e(  2 -  2) =     -9.72573  eV     1   --> B_1  D_3  S_3  
     e(  3 -  3) =     -6.17883  eV     1   --> B_2  D_4  S_4  
     e(  4 -  4) =     -5.84324  eV     1   --> A_1  D_1  S_1  
     e(  5 -  5) =      1.12239  eV     1   --> A_1  D_1  S_1  
     e(  6 -  6) =      1.79291  eV     1   --> B_1  D_3  S_3  
     e(  7 -  7) =      1.92419  eV     1   --> A_1  D_1  S_1  
     e(  8 -  8) =      2.93137  eV     1   --> B_1  D_3  S_3  
     e(  9 -  9) =      3.36330  eV     1   --> A_1  D_1  S_1  
     e( 10 - 10) =      5.05200  eV     1   --> B_1  D_3  S_3  
     e( 11 - 11) =      5.69872  eV     1   --> A_1  D_1  S_1  
     e( 12 - 12) =      6.11386  eV     1   --> A_1  D_1  S_1  
     e( 13 - 13) =      6.73410  eV     1   --> B_2  D_4  S_4  
     e( 14 - 14) =      8.03797  eV     1   --> B_1  D_3  S_3  
     e( 15 - 15) =      8.36189  eV     1   --> A_2  D_2  S_2  
     e( 16 - 16) =      8.84777  eV     1   --> A_1  D_1  S_1  

 **************************************************************************

 **************************************************************************

                    xk=(  -0.04667,   0.08083,   0.00000  )

     Band symmetry, C_2v (mm2)  point group:

     e(  1 -  1) =    -21.71698  eV     1   --> A_1  D_1  S_1  
     e(  2 -  2) =     -9.78195  eV     1   --> B_1  D_3  S_3  
     e(  3 -  3) =     -6.01061  eV     1   --> B_2  D_4  S_4  
     e(  4 -  4) =     -5.74405  eV     1   --> A_1  D_1  S_1  
     e(  5 -  5) =      1.05811  eV     1   --> A_1  D_1  S_1  
     e(  6 -  6) =      1.72776  eV     1   --> B_1  D_3  S_3  
     e(  7 -  7) =      1.85859  eV     1   --> A_1  D_1  S_1  
     e(  8 -  8) =      2.86645  eV     1   --> B_1  D_3  S_3  
     e(  9 -  9) =      3.29832  eV     1   --> A_1  D_1  S_1  
     e( 10 - 10) =      4.98761  eV     1   --> B_1  D_3  S_3  
     e( 11 - 11) =      5.63747  eV     1   --> A_1  D_1  S_1  
     e( 12 - 12) =      6.07629  eV     1   --> A_1  D_1  S_1  
     e( 13 - 13) =      6.57175  eV     1   --> B_2  D_4  S_4  
     e( 14 - 14) =      7.97472  eV     1   --> B_1  D_3  S_3  
     e( 15 - 15) =      8.51693  eV     1   --> A_2  D_2  S_2  
     e( 16 - 16) =      8.78276  eV     1   --> A_1  D_1  S_1  

 **************************************************************************

 **************************************************************************

                    xk=(  -0.04000,   0.06928,   0.00000  )

     Band symmetry, C_2v (mm2)  point group:

     e(  1 -  1) =    -21.75783  eV     1   --> A_1  D_1  S_1  
     e(  2 -  2) =     -9.83073  eV     1   --> B_1  D_3  S_3  
     e(  3 -  3) =     -5.85939  eV     1   --> B_2  D_4  S_4  
     e(  4 -  4) =     -5.65697  eV     1   --> A_1  D_1  S_1  
     e(  5 -  5) =      1.00240  eV     1   --> A_1  D_1  S_1  
     e(  6 -  6) =      1.67129  eV     1   --> B_1  D_3  S_3  
     e(  7 -  7) =      1.80174  eV     1   --> A_1  D_1  S_1  
     e(  8 -  8) =      2.81017  eV     1   --> B_1  D_3  S_3  
     e(  9 -  9) =      3.24201  eV     1   --> A_1  D_1  S_1  
     e( 10 - 10) =      4.93180  eV     1   --> B_1  D_3  S_3  
     e( 11 - 11) =      5.58420  eV     1   --> A_1  D_1  S_1  
     e( 12 - 12) =      6.04459  eV     1   --> A_1  D_1  S_1  
     e( 13 - 13) =      6.42222  eV     1   --> B_2  D_4  S_4  
     e( 14 - 14) =      7.91986  eV     1   --> B_1  D_3  S_3  
     e( 15 - 15) =      8.65361  eV     1   --> A_2  D_2  S_2  
     e( 16 - 16) =      8.72635  eV     1   --> A_1  D_1  S_1  

 **************************************************************************

 **************************************************************************

                    xk=(  -0.03333,   0.05774,   0.00000  )

     Band symmetry, C_2v (mm2)  point group:

     e(  1 -  1) =    -21.79240  eV     1   --> A_1  D_1  S_1  
     e(  2 -  2) =     -9.87204  eV     1   --> B_1  D_3  S_3  
     e(  3 -  3) =     -5.72715  eV     1   --> B_2  D_4  S_4  
     e(  4 -  4) =     -5.58246  eV     1   --> A_1  D_1  S_1  
     e(  5 -  5) =      0.95527  eV     1   --> A_1  D_1  S_1  
     e(  6 -  6) =      1.62350  eV     1   --> B_1  D_3  S_3  
     e(  7 -  7) =      1.75364  eV     1   --> A_1  D_1  S_1  
     e(  8 -  8) =      2.76254  eV     1   --> B_1  D_3  S_3  
     e(  9 -  9) =      3.19436  eV     1   --> A_1  D_1  S_1  
     e( 10 - 10) =      4.88455  eV     1   --> B_1  D_3  S_3  
     e( 11 - 11) =      5.53901  eV     1   --> A_1  D_1  S_1  
     e( 12 - 12) =      6.01845  eV     1   --> A_1  D_1  S_1  
     e( 13 - 13) =      6.28897  eV     1   --> B_2  D_4  S_4  
     e( 14 - 14) =      7.87340  eV     1   --> B_1  D_3  S_3  
     e( 15 - 15) =      8.67857  eV     1   --> A_1  D_1  S_1  
     e( 16 - 16) =      8.77099  eV     1   --> A_2  D_2  S_2  

 **************************************************************************

 **************************************************************************

                    xk=(  -0.02667,   0.04619,   0.00000  )

     Band symmetry, C_2v (mm2)  point group:

     e(  1 -  1) =    -21.82070  eV     1   --> A_1  D_1  S_1  
     e(  2 -  2) =     -9.90587  eV     1   --> B_1  D_3  S_3  
     e(  3 -  3) =     -5.61580  eV     1   --> B_2  D_4  S_4  
     e(  4 -  4) =     -5.52094  eV     1   --> A_1  D_1  S_1  
     e(  5 -  5) =      0.91671  eV     1   --> A_1  D_1  S_1  
     e(  6 -  6) =      1.58439  eV     1   --> B_1  D_3  S_3  
     e(  7 -  7) =      1.71429  eV     1   --> A_1  D_1  S_1  
     e(  8 -  8) =      2.72357  eV     1   --> B_1  D_3  S_3  
     e(  9 -  9) =      3.15539  eV     1   --> A_1  D_1  S_1  
     e( 10 - 10) =      4.84588  eV     1   --> B_1  D_3  S_3  
     e( 11 - 11) =      5.50196  eV     1   --> A_1  D_1  S_1  
     e( 12 - 12) =      5.99753  eV     1   --> A_1  D_1  S_1  
     e( 13 - 13) =      6.17512  eV     1   --> B_2  D_4  S_4  
     e( 14 - 14) =      7.83537  eV     1   --> B_1  D_3  S_3  
     e( 15 - 15) =      8.63943  eV     1   --> A_1  D_1  S_1  
     e( 16 - 16) =      8.86822  eV     1   --> A_2  D_2  S_2  

 **************************************************************************

 **************************************************************************

                    xk=(  -0.02000,   0.03464,   0.00000  )

     Band symmetry, C_2v (mm2)  point group:

     e(  1 -  1) =    -21.84271  eV     1   --> A_1  D_1  S_1  
     e(  2 -  2) =     -9.93220  eV     1   --> B_1  D_3  S_3  
     e(  3 -  3) =     -5.52712  eV     1   --> B_2  D_4  S_4  
     e(  4 -  4) =     -5.47272  eV     1   --> A_1  D_1  S_1  
     e(  5 -  5) =      0.88672  eV     1   --> A_1  D_1  S_1  
     e(  6 -  6) =      1.55398  eV     1   --> B_1  D_3  S_3  
     e(  7 -  7) =      1.68368  eV     1   --> A_1  D_1  S_1  
     e(  8 -  8) =      2.69326  eV     1   --> B_1  D_3  S_3  
     e(  9 -  9) =      3.12507  eV     1   --> A_1  D_1  S_1  
     e( 10 - 10) =      4.81581  eV     1   --> B_1  D_3  S_3  
     e( 11 - 11) =      5.47310  eV     1   --> A_1  D_1  S_1  
     e( 12 - 12) =      5.98156  eV     1   --> A_1  D_1  S_1  
     e( 13 - 13) =      6.08345  eV     1   --> B_2  D_4  S_4  
     e( 14 - 14) =      7.80578  eV     1   --> B_1  D_3  S_3  
     e( 15 - 15) =      8.60897  eV     1   --> A_1  D_1  S_1  
     e( 16 - 16) =      8.94461  eV     1   --> A_2  D_2  S_2  

 **************************************************************************

 **************************************************************************

                    xk=(  -0.01333,   0.02309,   0.00000  )

     Band symmetry, C_2v (mm2)  point group:

     e(  1 -  1) =    -21.85845  eV     1   --> A_1  D_1  S_1  
     e(  2 -  2) =     -9.95102  eV     1   --> B_1  D_3  S_3  
     e(  3 -  3) =     -5.46261  eV     1   --> B_2  D_4  S_4  
     e(  4 -  4) =     -5.43808  eV     1   --> A_1  D_1  S_1  
     e(  5 -  5) =      0.86530  eV     1   --> A_1  D_1  S_1  
     e(  6 -  6) =      1.53225  eV     1   --> B_1  D_3  S_3  
     e(  7 -  7) =      1.66182  eV     1   --> A_1  D_1  S_1  
     e(  8 -  8) =      2.67160  eV     1   --> B_1  D_3  S_3  
     e(  9 -  9) =      3.10342  eV     1   --> A_1  D_1  S_1  
     e( 10 - 10) =      4.79432  eV     1   --> B_1  D_3  S_3  
     e( 11 - 11) =      5.45247  eV     1   --> A_1  D_1  S_1  
     e( 12 - 12) =      5.97031  eV     1   --> A_1  D_1  S_1  
     e( 13 - 13) =      6.01624  eV     1   --> B_2  D_4  S_4  
     e( 14 - 14) =      7.78464  eV     1   --> B_1  D_3  S_3  
     e( 15 - 15) =      8.58719  eV     1   --> A_1  D_1  S_1  
     e( 16 - 16) =      8.99958  eV     1   --> A_2  D_2  S_2  

 **************************************************************************

 **************************************************************************

                    xk=(  -0.00667,   0.01155,   0.00000  )

     Band symmetry, C_2v (mm2)  point group:

     e(  1 -  1) =    -21.86789  eV     1   --> A_1  D_1  S_1  
     e(  2 -  2) =     -9.96231  eV     1   --> B_1  D_3  S_3  
     e(  3 -  3) =     -5.42341  eV     1   --> B_2  D_4  S_4  
     e(  4 -  4) =     -5.41723  eV     1   --> A_1  D_1  S_1  
     e(  5 -  5) =      0.85245  eV     1   --> A_1  D_1  S_1  
     e(  6 -  6) =      1.51921  eV     1   --> B_1  D_3  S_3  
     e(  7 -  7) =      1.64870  eV     1   --> A_1  D_1  S_1  
     e(  8 -  8) =      2.65861  eV     1   --> B_1  D_3  S_3  
     e(  9 -  9) =      3.09043  eV     1   --> A_1  D_1  S_1  
     e( 10 - 10) =      4.78142  eV     1   --> B_1  D_3  S_3  
     e( 11 - 11) =      5.44008  eV     1   --> A_1  D_1  S_1  
     e( 12 - 12) =      5.96363  eV     1   --> A_1  D_1  S_1  
     e( 13 - 13) =      5.97521  eV     1   --> B_2  D_4  S_4  
     e( 14 - 14) =      7.77195  eV     1   --> B_1  D_3  S_3  
     e( 15 - 15) =      8.57412  eV     1   --> A_1  D_1  S_1  
     e( 16 - 16) =      9.03273  eV     1   --> A_2  D_2  S_2  

 **************************************************************************

 **************************************************************************

                    xk=(   0.00000,   0.00000,   0.00000  )

     point group D_6h(6/mmm)
     there are 12 classes
     the character table:

       E     2C6   2C3   C2    3C2'  3C2'' i     2S3   2S6   s_h   3s_d  3s_v 
A_1g   1.00  1.00  1.00  1.00  1.00  1.00  1.00  1.00  1.00  1.00  1.00  1.00
A_2g   1.00  1.00  1.00  1.00 -1.00 -1.00  1.00  1.00  1.00  1.00 -1.00 -1.00
B_1g   1.00 -1.00  1.00 -1.00  1.00 -1.00  1.00 -1.00  1.00 -1.00  1.00 -1.00
B_2g   1.00 -1.00  1.00 -1.00 -1.00  1.00  1.00 -1.00  1.00 -1.00 -1.00  1.00
E_1g   2.00  1.00 -1.00 -2.00  0.00  0.00  2.00  1.00 -1.00 -2.00  0.00  0.00
E_2g   2.00 -1.00 -1.00  2.00  0.00  0.00  2.00 -1.00 -1.00  2.00  0.00  0.00
A_1u   1.00  1.00  1.00  1.00  1.00  1.00 -1.00 -1.00 -1.00 -1.00 -1.00 -1.00
A_2u   1.00  1.00  1.00  1.00 -1.00 -1.00 -1.00 -1.00 -1.00 -1.00  1.00  1.00
B_1u   1.00 -1.00  1.00 -1.00  1.00 -1.00 -1.00  1.00 -1.00  1.00 -1.00  1.00
B_2u   1.00 -1.00  1.00 -1.00 -1.00  1.00 -1.00  1.00 -1.00  1.00  1.00 -1.00
E_1u   2.00  1.00 -1.00 -2.00  0.00  0.00 -2.00 -1.00  1.00  2.00  0.00  0.00
E_2u   2.00 -1.00 -1.00  2.00  0.00  0.00 -2.00  1.00  1.00 -2.00  0.00  0.00

     the symmetry operations in each class and the name of the first element:

     E        1
                                                                 
     2C6      5    6
                                                                 
     2C3      7    8
                                                                 
     C2       2
                                                                 
     3C2'     4   12   11
                                                                 
     3C2''    3    9   10
                                                                 
     i       13
                                                                 
     2S3     17   18
                                                                 
     2S6     19   20
                                                                 
     s_h     14
                                                                 
     3s_d    16   24   23
                                                                 
     3s_v    15   21   22
                                                                 

     Band symmetry, D_6h(6/mmm) point group:

     e(  1 -  1) =    -21.87103  eV     1   --> A_1g           
     e(  2 -  2) =     -9.96607  eV     1   --> A_2u           
     e(  3 -  4) =     -5.41027  eV     2   --> E_2g           
     e(  5 -  5) =      0.84817  eV     1   --> A_1g           
     e(  6 -  6) =      1.51486  eV     1   --> A_2u           
     e(  7 -  7) =      1.64433  eV     1   --> A_1g           
     e(  8 -  8) =      2.65427  eV     1   --> A_2u           
     e(  9 -  9) =      3.08610  eV     1   --> A_1g           
     e( 10 - 10) =      4.77713  eV     1   --> A_2u           
     e( 11 - 11) =      5.43595  eV     1   --> A_1g           
     e( 12 - 13) =      5.96140  eV     2   --> E_1u           
     e( 14 - 14) =      7.76772  eV     1   --> A_2u           
     e( 15 - 15) =      8.56977  eV     1   --> A_1g           
     e( 16 - 16) =      9.04381  eV     1   --> B_1g           

 **************************************************************************

 **************************************************************************

                    xk=(   0.00000,   0.01155,   0.00000  )

     point group C_2v (mm2) 
     there are  4 classes
     the character table:

       E     C2    s_v   s_v' 
A_1    1.00  1.00  1.00  1.00
A_2    1.00  1.00 -1.00 -1.00
B_1    1.00 -1.00  1.00 -1.00
B_2    1.00 -1.00 -1.00  1.00

     the symmetry operations in each class and the name of the first element:

     E        1
                                                                 
     C2       2
                                                                 
     s_v      3
                                                                 
     s_v'     4
                                                                 

     Band symmetry, C_2v (mm2)  point group:

     e(  1 -  1) =    -21.86867  eV     1   --> A_1  D_1  S_1  
     e(  2 -  2) =     -9.96325  eV     1   --> B_2  D_4  S_4  
     e(  3 -  3) =     -5.42013  eV     1   --> A_1  D_1  S_1  
     e(  4 -  4) =     -5.41548  eV     1   --> B_1  D_3  S_3  
     e(  5 -  5) =      0.85138  eV     1   --> A_1  D_1  S_1  
     e(  6 -  6) =      1.51812  eV     1   --> B_2  D_4  S_4  
     e(  7 -  7) =      1.64761  eV     1   --> A_1  D_1  S_1  
     e(  8 -  8) =      2.65752  eV     1   --> B_2  D_4  S_4  
     e(  9 -  9) =      3.08935  eV     1   --> A_1  D_1  S_1  
     e( 10 - 10) =      4.78035  eV     1   --> B_2  D_4  S_4  
     e( 11 - 11) =      5.43905  eV     1   --> A_1  D_1  S_1  
     e( 12 - 12) =      5.96306  eV     1   --> A_1  D_1  S_1  
     e( 13 - 13) =      5.97178  eV     1   --> B_1  D_3  S_3  
     e( 14 - 14) =      7.77089  eV     1   --> B_2  D_4  S_4  
     e( 15 - 15) =      8.57303  eV     1   --> A_1  D_1  S_1  
     e( 16 - 16) =      9.03550  eV     1   --> B_2  D_4  S_4  

 **************************************************************************

 **************************************************************************

                    xk=(   0.00000,   0.02309,   0.00000  )

     Band symmetry, C_2v (mm2)  point group:

     e(  1 -  1) =    -21.86160  eV     1   --> A_1  D_1  S_1  
     e(  2 -  2) =     -9.95478  eV     1   --> B_2  D_4  S_4  
     e(  3 -  3) =     -5.44965  eV     1   --> A_1  D_1  S_1  
     e(  4 -  4) =     -5.43108  eV     1   --> B_1  D_3  S_3  
     e(  5 -  5) =      0.86102  eV     1   --> A_1  D_1  S_1  
     e(  6 -  6) =      1.52790  eV     1   --> B_2  D_4  S_4  
     e(  7 -  7) =      1.65745  eV     1   --> A_1  D_1  S_1  
     e(  8 -  8) =      2.66727  eV     1   --> B_2  D_4  S_4  
     e(  9 -  9) =      3.09909  eV     1   --> A_1  D_1  S_1  
     e( 10 - 10) =      4.79002  eV     1   --> B_2  D_4  S_4  
     e( 11 - 11) =      5.44834  eV     1   --> A_1  D_1  S_1  
     e( 12 - 12) =      5.96790  eV     1   --> A_1  D_1  S_1  
     e( 13 - 13) =      6.00279  eV     1   --> B_1  D_3  S_3  
     e( 14 - 14) =      7.78041  eV     1   --> B_2  D_4  S_4  
     e( 15 - 15) =      8.58284  eV     1   --> A_1  D_1  S_1  
     e( 16 - 16) =      9.01062  eV     1   --> B_2  D_4  S_4  

 **************************************************************************

 **************************************************************************

                    xk=(   0.00000,   0.03464,   0.00000  )

     Band symmetry, C_2v (mm2)  point group:

     e(  1 -  1) =    -21.84979  eV     1   --> A_1  D_1  S_1  
     e(  2 -  2) =     -9.94067  eV     1   --> B_2  D_4  S_4  
     e(  3 -  3) =     -5.49852  eV     1   --> A_1  D_1  S_1  
     e(  4 -  4) =     -5.45685  eV     1   --> B_1  D_3  S_3  
     e(  5 -  5) =      0.87708  eV     1   --> A_1  D_1  S_1  
     e(  6 -  6) =      1.54420  eV     1   --> B_2  D_4  S_4  
     e(  7 -  7) =      1.67385  eV     1   --> A_1  D_1  S_1  
     e(  8 -  8) =      2.68351  eV     1   --> B_2  D_4  S_4  
     e(  9 -  9) =      3.11533  eV     1   --> A_1  D_1  S_1  
     e( 10 - 10) =      4.80614  eV     1   --> B_2  D_4  S_4  
     e( 11 - 11) =      5.46382  eV     1   --> A_1  D_1  S_1  
     e( 12 - 12) =      5.97561  eV     1   --> A_1  D_1  S_1  
     e( 13 - 13) =      6.05427  eV     1   --> B_1  D_3  S_3  
     e( 14 - 14) =      7.79627  eV     1   --> B_2  D_4  S_4  
     e( 15 - 15) =      8.59917  eV     1   --> A_1  D_1  S_1  
     e( 16 - 16) =      8.96930  eV     1   --> B_2  D_4  S_4  

 **************************************************************************

 **************************************************************************

                    xk=(   0.00000,   0.04619,   0.00000  )

     Band symmetry, C_2v (mm2)  point group:

     e(  1 -  1) =    -21.83328  eV     1   --> A_1  D_1  S_1  
     e(  2 -  2) =     -9.92092  eV     1   --> B_2  D_4  S_4  
     e(  3 -  3) =     -5.56629  eV     1   --> A_1  D_1  S_1  
     e(  4 -  4) =     -5.49246  eV     1   --> B_1  D_3  S_3  
     e(  5 -  5) =      0.89958  eV     1   --> A_1  D_1  S_1  
     e(  6 -  6) =      1.56701  eV     1   --> B_2  D_4  S_4  
     e(  7 -  7) =      1.69680  eV     1   --> A_1  D_1  S_1  
     e(  8 -  8) =      2.70625  eV     1   --> B_2  D_4  S_4  
     e(  9 -  9) =      3.13806  eV     1   --> A_1  D_1  S_1  
     e( 10 - 10) =      4.82870  eV     1   --> B_2  D_4  S_4  
     e( 11 - 11) =      5.48546  eV     1   --> A_1  D_1  S_1  
     e( 12 - 12) =      5.98567  eV     1   --> A_1  D_1  S_1  
     e( 13 - 13) =      6.12584  eV     1   --> B_1  D_3  S_3  
     e( 14 - 14) =      7.81846  eV     1   --> B_2  D_4  S_4  
     e( 15 - 15) =      8.62203  eV     1   --> A_1  D_1  S_1  
     e( 16 - 16) =      8.91178  eV     1   --> B_2  D_4  S_4  

 **************************************************************************

 **************************************************************************

                    xk=(   0.00000,   0.05774,   0.00000  )

     Band symmetry, C_2v (mm2)  point group:

     e(  1 -  1) =    -21.81205  eV     1   --> A_1  D_1  S_1  
     e(  2 -  2) =     -9.89553  eV     1   --> B_2  D_4  S_4  
     e(  3 -  3) =     -5.65236  eV     1   --> A_1  D_1  S_1  
     e(  4 -  4) =     -5.53749  eV     1   --> B_1  D_3  S_3  
     e(  5 -  5) =      0.92849  eV     1   --> A_1  D_1  S_1  
     e(  6 -  6) =      1.59634  eV     1   --> B_2  D_4  S_4  
     e(  7 -  7) =      1.72632  eV     1   --> A_1  D_1  S_1  
     e(  8 -  8) =      2.73548  eV     1   --> B_2  D_4  S_4  
     e(  9 -  9) =      3.16730  eV     1   --> A_1  D_1  S_1  
     e( 10 - 10) =      4.85770  eV     1   --> B_2  D_4  S_4  
     e( 11 - 11) =      5.51324  eV     1   --> A_1  D_1  S_1  
     e( 12 - 12) =      5.99744  eV     1   --> A_1  D_1  S_1  
     e( 13 - 13) =      6.21704  eV     1   --> B_1  D_3  S_3  
     e( 14 - 14) =      7.84699  eV     1   --> B_2  D_4  S_4  
     e( 15 - 15) =      8.65139  eV     1   --> A_1  D_1  S_1  
     e( 16 - 16) =      8.83838  eV     1   --> B_2  D_4  S_4  

 **************************************************************************

 **************************************************************************

                    xk=(   0.00000,   0.06928,   0.00000  )

     Band symmetry, C_2v (mm2)  point group:

     e(  1 -  1) =    -21.78611  eV     1   --> A_1  D_1  S_1  
     e(  2 -  2) =     -9.86453  eV     1   --> B_2  D_4  S_4  
     e(  3 -  3) =     -5.75597  eV     1   --> A_1  D_1  S_1  
     e(  4 -  4) =     -5.59140  eV     1   --> B_1  D_3  S_3  
     e(  5 -  5) =      0.96384  eV     1   --> A_1  D_1  S_1  
     e(  6 -  6) =      1.63219  eV     1   --> B_2  D_4  S_4  
     e(  7 -  7) =      1.76239  eV     1   --> A_1  D_1  S_1  
     e(  8 -  8) =      2.77120  eV     1   --> B_2  D_4  S_4  
     e(  9 -  9) =      3.20302  eV     1   --> A_1  D_1  S_1  
     e( 10 - 10) =      4.89314  eV     1   --> B_2  D_4  S_4  
     e( 11 - 11) =      5.54709  eV     1   --> A_1  D_1  S_1  
     e( 12 - 12) =      6.01018  eV     1   --> A_1  D_1  S_1  
     e( 13 - 13) =      6.32731  eV     1   --> B_1  D_3  S_3  
     e( 14 - 14) =      7.88184  eV     1   --> B_2  D_4  S_4  
     e( 15 - 15) =      8.68724  eV     1   --> A_1  D_1  S_1  
     e( 16 - 16) =      8.74948  eV     1   --> B_2  D_4  S_4  

 **************************************************************************

 **************************************************************************

                    xk=(   0.00000,   0.08083,   0.00000  )

     Band symmetry, C_2v (mm2)  point group:

     e(  1 -  1) =    -21.75547  eV     1   --> A_1  D_1  S_1  
     e(  2 -  2) =     -9.82791  eV     1   --> B_2  D_4  S_4  
     e(  3 -  3) =     -5.87624  eV     1   --> A_1  D_1  S_1  
     e(  4 -  4) =     -5.65358  eV     1   --> B_1  D_3  S_3  
     e(  5 -  5) =      1.00561  eV     1   --> A_1  D_1  S_1  
     e(  6 -  6) =      1.67455  eV     1   --> B_2  D_4  S_4  
     e(  7 -  7) =      1.80502  eV     1   --> A_1  D_1  S_1  
     e(  8 -  8) =      2.81342  eV     1   --> B_2  D_4  S_4  
     e(  9 -  9) =      3.24525  eV     1   --> A_1  D_1  S_1  
     e( 10 - 10) =      4.93501  eV     1   --> B_2  D_4  S_4  
     e( 11 - 11) =      5.58689  eV     1   --> A_1  D_1  S_1  
     e( 12 - 12) =      6.02316  eV     1   --> A_1  D_1  S_1  
     e( 13 - 13) =      6.45600  eV     1   --> B_1  D_3  S_3  
     e( 14 - 14) =      7.92298  eV     1   --> B_2  D_4  S_4  
     e( 15 - 15) =      8.64555  eV     1   --> B_2  D_4  S_4  
     e( 16 - 16) =      8.72957  eV     1   --> A_1  D_1  S_1  

 **************************************************************************

 **************************************************************************

                    xk=(   0.00000,   0.09238,   0.00000  )

     Band symmetry, C_2v (mm2)  point group:

     e(  1 -  1) =    -21.72012  eV     1   --> A_1  D_1  S_1  
     e(  2 -  2) =     -9.78570  eV     1   --> B_2  D_4  S_4  
     e(  3 -  3) =     -6.01224  eV     1   --> A_1  D_1  S_1  
     e(  4 -  4) =     -5.72336  eV     1   --> B_1  D_3  S_3  
     e(  5 -  5) =      1.05382  eV     1   --> A_1  D_1  S_1  
     e(  6 -  6) =      1.72341  eV     1   --> B_2  D_4  S_4  
     e(  7 -  7) =      1.85422  eV     1   --> A_1  D_1  S_1  
     e(  8 -  8) =      2.86212  eV     1   --> B_2  D_4  S_4  
     e(  9 -  9) =      3.29398  eV     1   --> A_1  D_1  S_1  
[...]
     e( 16 - 16) =     12.02193  eV     1   --> B_2  D_4  S_4  

 **************************************************************************

 **************************************************************************

                    xk=(   0.00000,   0.54271,   0.00000  )

     Band symmetry, C_2v (mm2)  point group:

     e(  1 -  1) =    -16.94352  eV     1   --> A_1  D_1  S_1  
     e(  2 -  2) =    -15.25973  eV     1   --> A_1  D_1  S_1  
     e(  3 -  3) =     -8.76463  eV     1   --> B_1  D_3  S_3  
     e(  4 -  4) =     -4.84837  eV     1   --> B_2  D_4  S_4  
     e(  5 -  5) =     -0.50713  eV     1   --> B_2  D_4  S_4  
     e(  6 -  6) =      5.02425  eV     1   --> A_1  D_1  S_1  
     e(  7 -  7) =      7.88844  eV     1   --> A_1  D_1  S_1  
     e(  8 -  8) =      8.65483  eV     1   --> B_2  D_4  S_4  
     e(  9 -  9) =      8.88766  eV     1   --> A_1  D_1  S_1  
     e( 10 - 10) =      9.73449  eV     1   --> A_1  D_1  S_1  
     e( 11 - 11) =      9.75384  eV     1   --> B_2  D_4  S_4  
     e( 12 - 12) =     10.25671  eV     1   --> A_1  D_1  S_1  
     e( 13 - 13) =     10.53208  eV     1   --> B_2  D_4  S_4  
     e( 14 - 14) =     10.85072  eV     1   --> A_1  D_1  S_1  
     e( 15 - 15) =     11.54140  eV     1   --> B_2  D_4  S_4  
     e( 16 - 16) =     11.86655  eV     1   --> B_2  D_4  S_4  

 **************************************************************************

 **************************************************************************

                    xk=(   0.00000,   0.55426,   0.00000  )

     Band symmetry, C_2v (mm2)  point group:

     e(  1 -  1) =    -16.79344  eV     1   --> A_1  D_1  S_1  
     e(  2 -  2) =    -15.42739  eV     1   --> A_1  D_1  S_1  
     e(  3 -  3) =     -8.77637  eV     1   --> B_1  D_3  S_3  
     e(  4 -  4) =     -4.77474  eV     1   --> B_2  D_4  S_4  
     e(  5 -  5) =     -0.59914  eV     1   --> B_2  D_4  S_4  
     e(  6 -  6) =      5.01830  eV     1   --> A_1  D_1  S_1  
     e(  7 -  7) =      8.18234  eV     1   --> A_1  D_1  S_1  
     e(  8 -  8) =      8.95236  eV     1   --> B_2  D_4  S_4  
     e(  9 -  9) =      9.19720  eV     1   --> A_1  D_1  S_1  
     e( 10 - 10) =      9.42111  eV     1   --> A_1  D_1  S_1  
     e( 11 - 11) =     10.01730  eV     1   --> B_2  D_4  S_4  
     e( 12 - 12) =     10.25131  eV     1   --> B_2  D_4  S_4  
     e( 13 - 13) =     10.50639  eV     1   --> A_1  D_1  S_1  
     e( 14 - 14) =     10.56176  eV     1   --> A_1  D_1  S_1  
     e( 15 - 15) =     11.30172  eV     1   --> B_2  D_4  S_4  
     e( 16 - 16) =     11.83733  eV     1   --> A_1  D_1  S_1  

 **************************************************************************

 **************************************************************************

                    xk=(   0.00000,   0.56580,   0.00000  )

     Band symmetry, C_2v (mm2)  point group:

     e(  1 -  1) =    -16.68228  eV     1   --> A_1  D_1  S_1  
     e(  2 -  2) =    -15.54910  eV     1   --> A_1  D_1  S_1  
     e(  3 -  3) =     -8.78342  eV     1   --> B_1  D_3  S_3  
     e(  4 -  4) =     -4.72888  eV     1   --> B_2  D_4  S_4  
     e(  5 -  5) =     -0.65605  eV     1   --> B_2  D_4  S_4  
     e(  6 -  6) =      5.01472  eV     1   --> A_1  D_1  S_1  
     e(  7 -  7) =      8.47861  eV     1   --> A_1  D_1  S_1  
     e(  8 -  8) =      9.10872  eV     1   --> A_1  D_1  S_1  
     e(  9 -  9) =      9.25093  eV     1   --> B_2  D_4  S_4  
     e( 10 - 10) =      9.51754  eV     1   --> A_1  D_1  S_1  
     e( 11 - 11) =      9.88076  eV     1   --> B_2  D_4  S_4  
     e( 12 - 12) =     10.17093  eV     1   --> A_1  D_1  S_1  
     e( 13 - 13) =     10.37297  eV     1   --> B_2  D_4  S_4  
     e( 14 - 14) =     10.87095  eV     1   --> A_1  D_1  S_1  
     e( 15 - 15) =     11.00675  eV     1   --> B_2  D_4  S_4  
     e( 16 - 16) =     11.51018  eV     1   --> A_1  D_1  S_1  

 **************************************************************************

 **************************************************************************

                    xk=(   0.00000,   0.57735,   0.00000  )

     zone border point and non-symmorphic group 
     symmetry decomposition not available

 **************************************************************************

 **************************************************************************

                    xk=(  -0.00667,   0.57735,   0.00000  )

     zone border point and non-symmorphic group 
     symmetry decomposition not available

 **************************************************************************

 **************************************************************************

                    xk=(  -0.01333,   0.57735,   0.00000  )

     zone border point and non-symmorphic group 
     symmetry decomposition not available

 **************************************************************************

 **************************************************************************

                    xk=(  -0.02000,   0.57735,   0.00000  )

     zone border point and non-symmorphic group 
     symmetry decomposition not available

 **************************************************************************

 **************************************************************************

                    xk=(  -0.02667,   0.57735,   0.00000  )

     zone border point and non-symmorphic group 
     symmetry decomposition not available

 **************************************************************************

 **************************************************************************

                    xk=(  -0.03333,   0.57735,   0.00000  )

     zone border point and non-symmorphic group 
     symmetry decomposition not available

 **************************************************************************

 **************************************************************************

                    xk=(  -0.04000,   0.57735,   0.00000  )

     zone border point and non-symmorphic group 
     symmetry decomposition not available

 **************************************************************************

 **************************************************************************

                    xk=(  -0.04667,   0.57735,   0.00000  )

     zone border point and non-symmorphic group 
     symmetry decomposition not available

 **************************************************************************

 **************************************************************************

                    xk=(  -0.05333,   0.57735,   0.00000  )

     zone border point and non-symmorphic group 
     symmetry decomposition not available

 **************************************************************************

 **************************************************************************

                    xk=(  -0.06000,   0.57735,   0.00000  )

     zone border point and non-symmorphic group 
     symmetry decomposition not available

 **************************************************************************

 **************************************************************************

                    xk=(  -0.06667,   0.57735,   0.00000  )

     zone border point and non-symmorphic group 
     symmetry decomposition not available

 **************************************************************************

 **************************************************************************

                    xk=(  -0.07333,   0.57735,   0.00000  )

     zone border point and non-symmorphic group 
     symmetry decomposition not available

 **************************************************************************

 **************************************************************************

                    xk=(  -0.08000,   0.57735,   0.00000  )

     zone border point and non-symmorphic group 
     symmetry decomposition not available

 **************************************************************************

 **************************************************************************

                    xk=(  -0.08667,   0.57735,   0.00000  )

     zone border point and non-symmorphic group 
     symmetry decomposition not available

 **************************************************************************

 **************************************************************************

                    xk=(  -0.09333,   0.57735,   0.00000  )

     zone border point and non-symmorphic group 
     symmetry decomposition not available

 **************************************************************************

 **************************************************************************

                    xk=(  -0.10000,   0.57735,   0.00000  )

     zone border point and non-symmorphic group 
     symmetry decomposition not available

 **************************************************************************

 **************************************************************************

                    xk=(  -0.10667,   0.57735,   0.00000  )

     zone border point and non-symmorphic group 
     symmetry decomposition not available

 **************************************************************************

 **************************************************************************

                    xk=(  -0.11333,   0.57735,   0.00000  )

     zone border point and non-symmorphic group 
     symmetry decomposition not available

 **************************************************************************

 **************************************************************************

                    xk=(  -0.12000,   0.57735,   0.00000  )

     zone border point and non-symmorphic group 
     symmetry decomposition not available

 **************************************************************************

 **************************************************************************

                    xk=(  -0.12667,   0.57735,   0.00000  )

     zone border point and non-symmorphic group 
     symmetry decomposition not available

 **************************************************************************

 **************************************************************************

                    xk=(  -0.13333,   0.57735,   0.00000  )

     zone border point and non-symmorphic group 
     symmetry decomposition not available

 **************************************************************************

 **************************************************************************

                    xk=(  -0.14000,   0.57735,   0.00000  )

     zone border point and non-symmorphic group 
     symmetry decomposition not available

 **************************************************************************

 **************************************************************************

                    xk=(  -0.14667,   0.57735,   0.00000  )

     zone border point and non-symmorphic group 
     symmetry decomposition not available

 **************************************************************************

 **************************************************************************

                    xk=(  -0.15333,   0.57735,   0.00000  )

     zone border point and non-symmorphic group 
     symmetry decomposition not available

 **************************************************************************

 **************************************************************************

                    xk=(  -0.16000,   0.57735,   0.00000  )

     zone border point and non-symmorphic group 
     symmetry decomposition not available

 **************************************************************************

 **************************************************************************

                    xk=(  -0.16667,   0.57735,   0.00000  )

     zone border point and non-symmorphic group 
     symmetry decomposition not available

 **************************************************************************

 **************************************************************************

                    xk=(  -0.17333,   0.57735,   0.00000  )

     zone border point and non-symmorphic group 
     symmetry decomposition not available

 **************************************************************************

 **************************************************************************

                    xk=(  -0.18000,   0.57735,   0.00000  )

     zone border point and non-symmorphic group 
     symmetry decomposition not available

 **************************************************************************

 **************************************************************************

                    xk=(  -0.18667,   0.57735,   0.00000  )

     zone border point and non-symmorphic group 
     symmetry decomposition not available

 **************************************************************************

 **************************************************************************

                    xk=(  -0.19333,   0.57735,   0.00000  )

     zone border point and non-symmorphic group 
     symmetry decomposition not available

 **************************************************************************

 **************************************************************************

                    xk=(  -0.20000,   0.57735,   0.00000  )

     zone border point and non-symmorphic group 
     symmetry decomposition not available

 **************************************************************************

 **************************************************************************

                    xk=(  -0.20667,   0.57735,   0.00000  )

     zone border point and non-symmorphic group 
     symmetry decomposition not available

 **************************************************************************

 **************************************************************************

                    xk=(  -0.21333,   0.57735,   0.00000  )

     zone border point and non-symmorphic group 
     symmetry decomposition not available

 **************************************************************************

 **************************************************************************

                    xk=(  -0.22000,   0.57735,   0.00000  )

     zone border point and non-symmorphic group 
     symmetry decomposition not available

 **************************************************************************

 **************************************************************************

                    xk=(  -0.22667,   0.57735,   0.00000  )

     zone border point and non-symmorphic group 
     symmetry decomposition not available

 **************************************************************************

 **************************************************************************

                    xk=(  -0.23333,   0.57735,   0.00000  )

     zone border point and non-symmorphic group 
     symmetry decomposition not available

 **************************************************************************

 **************************************************************************

                    xk=(  -0.24000,   0.57735,   0.00000  )

     zone border point and non-symmorphic group 
     symmetry decomposition not available

 **************************************************************************

 **************************************************************************

                    xk=(  -0.24667,   0.57735,   0.00000  )

     zone border point and non-symmorphic group 
     symmetry decomposition not available

 **************************************************************************

 **************************************************************************

                    xk=(  -0.25333,   0.57735,   0.00000  )

     zone border point and non-symmorphic group 
     symmetry decomposition not available

 **************************************************************************

 **************************************************************************

                    xk=(  -0.26000,   0.57735,   0.00000  )

     zone border point and non-symmorphic group 
     symmetry decomposition not available

 **************************************************************************

 **************************************************************************

                    xk=(  -0.26667,   0.57735,   0.00000  )

     zone border point and non-symmorphic group 
     symmetry decomposition not available

 **************************************************************************

 **************************************************************************

                    xk=(  -0.27333,   0.57735,   0.00000  )

     zone border point and non-symmorphic group 
     symmetry decomposition not available

 **************************************************************************

 **************************************************************************

                    xk=(  -0.28000,   0.57735,   0.00000  )

     zone border point and non-symmorphic group 
     symmetry decomposition not available

 **************************************************************************

 **************************************************************************

                    xk=(  -0.28667,   0.57735,   0.00000  )

     zone border point and non-symmorphic group 
     symmetry decomposition not available

 **************************************************************************

 **************************************************************************

                    xk=(  -0.29333,   0.57735,   0.00000  )

     zone border point and non-symmorphic group 
     symmetry decomposition not available

 **************************************************************************

 **************************************************************************

                    xk=(  -0.30000,   0.57735,   0.00000  )

     zone border point and non-symmorphic group 
     symmetry decomposition not available

 **************************************************************************

 **************************************************************************

                    xk=(  -0.30667,   0.57735,   0.00000  )

     zone border point and non-symmorphic group 
     symmetry decomposition not available

 **************************************************************************

 **************************************************************************

                    xk=(  -0.31333,   0.57735,   0.00000  )

     zone border point and non-symmorphic group 
     symmetry decomposition not available

 **************************************************************************

 **************************************************************************

                    xk=(  -0.32000,   0.57735,   0.00000  )

     zone border point and non-symmorphic group 
     symmetry decomposition not available

 **************************************************************************

 **************************************************************************

                    xk=(  -0.32667,   0.57735,   0.00000  )

     zone border point and non-symmorphic group 
     symmetry decomposition not available

 **************************************************************************

 **************************************************************************

                    xk=(  -0.33333,   0.57735,   0.00000  )

     zone border point and non-symmorphic group 
     symmetry decomposition not available

 **************************************************************************
 
     BANDS        :     17.90s CPU     19.53s WALL

 
   This run was terminated on:  16:27:13  21Nov2023            

=------------------------------------------------------------------------------=
   JOB DONE.
=------------------------------------------------------------------------------=
