
     Program PWSCF v.7.2 starts on 17Nov2023 at 13:44: 6 

     This program is part of the open-source Quantum ESPRESSO suite
     for quantum simulation of materials; please cite
         "P. Giannozzi et al., J. Phys.:Condens. Matter 21 395502 (2009);
         "P. Giannozzi et al., J. Phys.:Condens. Matter 29 465901 (2017);
         "P. Giannozzi et al., J. Chem. Phys. 152 154105 (2020);
          URL http://www.quantum-espresso.org", 
     in publications or presentations arising from this work. More details at
     http://www.quantum-espresso.org/quote

     Parallel version (MPI & OpenMP), running on       4 processor cores
     Number of MPI processes:                 2
     Threads/MPI process:                     2

     MPI processes distributed on     1 nodes
     1133 MiB available memory on the printing compute node when the environment starts

     Reading input from graphene.bands.pwi

     Current dimensions of program PWSCF are:
     Max number of different atomic species (ntypx) = 10
     Max number of k-points (npk) =  40000
     Max angular momentum in pseudopotentials (lmaxx) =  4

     Atomic positions and unit cell read from directory:
     ../SCF/out/graphene.save/
     Atomic positions from file used, from input discarded

     file C.pbe-n-kjpaw_psl.1.0.0.UPF: wavefunction(s)  2S 2P renormalized

     R & G space division:  proc/nbgrp/npool/nimage =       2
     Subspace diagonalization in iterative solution of the eigenvalue problem:
     a serial algorithm will be used


     Parallelization info
     --------------------
     sticks:   dense  smooth     PW     G-vecs:    dense   smooth      PW
     Min         297     150     45                48017    17042    3029
     Max         298     151     46                48026    17065    3036
     Sum         595     301     91                96043    34107    6065

     Using Slab Decomposition


     Title: 
     graphene                                                                   


     bravais-lattice index     =            4
     lattice parameter (alat)  =       4.6627  a.u.
     unit-cell volume          =     711.6007 (a.u.)^3
     number of atoms/cell      =            2
     number of atomic types    =            1
     number of electrons       =         8.00
     number of Kohn-Sham states=           16
     kinetic-energy cutoff     =      50.0000  Ry
     charge density cutoff     =     400.0000  Ry
     Exchange-correlation= SLA  PW   PBX  PBC
                           (   1   4   3   4   0   0   0)

     celldm(1)=   4.662710  celldm(2)=   0.000000  celldm(3)=   8.105698
     celldm(4)=   0.000000  celldm(5)=   0.000000  celldm(6)=   0.000000

     crystal axes: (cart. coord. in units of alat)
               a(1) = (   1.000000   0.000000   0.000000 )  
               a(2) = (  -0.500000   0.866025   0.000000 )  
               a(3) = (   0.000000   0.000000   8.105698 )  

     reciprocal axes: (cart. coord. in units 2 pi/alat)
               b(1) = (  1.000000  0.577350 -0.000000 )  
               b(2) = (  0.000000  1.154701  0.000000 )  
               b(3) = (  0.000000 -0.000000  0.123370 )  


     PseudoPot. # 1 for C  read from file:
     ../pseudos/C.pbe-n-kjpaw_psl.1.0.0.UPF
     MD5 check sum: 5d2aebdfa2cae82b50a7e79e9516da0f
     Pseudo is Projector augmented-wave + core cor, Zval =  4.0
     Generated using "atomic" code by A. Dal Corso  v.5.1
     Shape of augmentation charge: PSQ
     Using radial grid of 1073 points,  4 beta functions with: 
                l(1) =   0
                l(2) =   0
                l(3) =   1
                l(4) =   1
     Q(r) pseudized with 0 coefficients 


     atomic species   valence    mass     pseudopotential
        C              4.00    12.01100     C ( 1.00)

     24 Sym. Ops., with inversion, found (18 have fractional translation)


                                    s                        frac. trans.

      isym =  1     identity                                     

 cryst.   s( 1) = (     1          0          0      )
                  (     0          1          0      )
                  (     0          0          1      )

 cart.    s( 1) = (  1.0000000  0.0000000  0.0000000 )
                  (  0.0000000  1.0000000  0.0000000 )
                  (  0.0000000  0.0000000  1.0000000 )


      isym =  2     180 deg rotation - cart. axis [0,0,1]        

 cryst.   s( 2) = (    -1          0          0      )    f =( -0.3333333 )
                  (     0         -1          0      )       (  0.3333333 )
                  (     0          0          1      )       (  0.0000000 )

 cart.    s( 2) = ( -1.0000000  0.0000000  0.0000000 )    f =( -0.5000000 )
                  (  0.0000000 -1.0000000  0.0000000 )       (  0.2886751 )
                  (  0.0000000  0.0000000  1.0000000 )       (  0.0000000 )


      isym =  3     180 deg rotation - cart. axis [0,1,0]        

 cryst.   s( 3) = (    -1          0          0      )    f =(  0.0000000 )
                  (     1          1          0      )       (  0.0000000 )
                  (     0          0         -1      )       ( -0.5000000 )

 cart.    s( 3) = ( -1.0000000 -0.0000000  0.0000000 )    f =(  0.0000000 )
                  (  0.0000000  1.0000000  0.0000000 )       (  0.0000000 )
                  (  0.0000000  0.0000000 -1.0000000 )       ( -4.0528492 )


      isym =  4     180 deg rotation - cart. axis [1,0,0]        

 cryst.   s( 4) = (     1          0          0      )    f =( -0.3333333 )
                  (    -1         -1          0      )       (  0.3333333 )
                  (     0          0         -1      )       ( -0.5000000 )

 cart.    s( 4) = (  1.0000000  0.0000000  0.0000000 )    f =( -0.5000000 )
                  (  0.0000000 -1.0000000  0.0000000 )       (  0.2886751 )
                  (  0.0000000  0.0000000 -1.0000000 )       ( -4.0528492 )


      isym =  5      60 deg rotation - cryst. axis [0,0,1]       

 cryst.   s( 5) = (     1          1          0      )    f =( -0.3333333 )
                  (    -1          0          0      )       (  0.3333333 )
                  (     0          0          1      )       (  0.0000000 )

 cart.    s( 5) = (  0.5000000 -0.8660254  0.0000000 )    f =( -0.5000000 )
                  (  0.8660254  0.5000000  0.0000000 )       (  0.2886751 )
                  (  0.0000000  0.0000000  1.0000000 )       (  0.0000000 )


      isym =  6      60 deg rotation - cryst. axis [0,0,-1]      

 cryst.   s( 6) = (     0         -1          0      )    f =( -0.3333333 )
                  (     1          1          0      )       (  0.3333333 )
                  (     0          0          1      )       (  0.0000000 )

 cart.    s( 6) = (  0.5000000  0.8660254  0.0000000 )    f =( -0.5000000 )
                  ( -0.8660254  0.5000000  0.0000000 )       (  0.2886751 )
                  (  0.0000000  0.0000000  1.0000000 )       (  0.0000000 )


      isym =  7     120 deg rotation - cryst. axis [0,0,1]       

 cryst.   s( 7) = (     0          1          0      )
                  (    -1         -1          0      )
                  (     0          0          1      )

 cart.    s( 7) = ( -0.5000000 -0.8660254  0.0000000 )
                  (  0.8660254 -0.5000000  0.0000000 )
                  (  0.0000000  0.0000000  1.0000000 )


      isym =  8     120 deg rotation - cryst. axis [0,0,-1]      

 cryst.   s( 8) = (    -1         -1          0      )
                  (     1          0          0      )
                  (     0          0          1      )

 cart.    s( 8) = ( -0.5000000  0.8660254  0.0000000 )
                  ( -0.8660254 -0.5000000  0.0000000 )
                  (  0.0000000  0.0000000  1.0000000 )


      isym =  9     180 deg rotation - cryst. axis [1,-1,0]      

 cryst.   s( 9) = (     0         -1          0      )    f =(  0.0000000 )
                  (    -1          0          0      )       (  0.0000000 )
                  (     0          0         -1      )       ( -0.5000000 )

 cart.    s( 9) = (  0.5000000 -0.8660254  0.0000000 )    f =(  0.0000000 )
                  ( -0.8660254 -0.5000000  0.0000000 )       (  0.0000000 )
                  (  0.0000000  0.0000000 -1.0000000 )       ( -4.0528492 )


      isym = 10     180 deg rotation - cryst. axis [2,1,0]       

 cryst.   s(10) = (     1          1          0      )    f =(  0.0000000 )
                  (     0         -1          0      )       (  0.0000000 )
                  (     0          0         -1      )       ( -0.5000000 )

 cart.    s(10) = (  0.5000000  0.8660254  0.0000000 )    f =(  0.0000000 )
                  (  0.8660254 -0.5000000  0.0000000 )       (  0.0000000 )
                  (  0.0000000  0.0000000 -1.0000000 )       ( -4.0528492 )


      isym = 11     180 deg rotation - cryst. axis [0,1,0]       

 cryst.   s(11) = (    -1         -1          0      )    f =( -0.3333333 )
                  (     0          1          0      )       (  0.3333333 )
                  (     0          0         -1      )       ( -0.5000000 )

 cart.    s(11) = ( -0.5000000 -0.8660254  0.0000000 )    f =( -0.5000000 )
                  ( -0.8660254  0.5000000  0.0000000 )       (  0.2886751 )
                  (  0.0000000  0.0000000 -1.0000000 )       ( -4.0528492 )


      isym = 12     180 deg rotation - cryst. axis [1,1,0]       

 cryst.   s(12) = (     0          1          0      )    f =( -0.3333333 )
                  (     1          0          0      )       (  0.3333333 )
                  (     0          0         -1      )       ( -0.5000000 )

 cart.    s(12) = ( -0.5000000  0.8660254  0.0000000 )    f =( -0.5000000 )
                  (  0.8660254  0.5000000  0.0000000 )       (  0.2886751 )
                  (  0.0000000  0.0000000 -1.0000000 )       ( -4.0528492 )


      isym = 13     inversion                                    

 cryst.   s(13) = (    -1          0          0      )    f =( -0.3333333 )
                  (     0         -1          0      )       (  0.3333333 )
                  (     0          0         -1      )       ( -0.5000000 )

 cart.    s(13) = ( -1.0000000  0.0000000  0.0000000 )    f =( -0.5000000 )
                  (  0.0000000 -1.0000000  0.0000000 )       (  0.2886751 )
                  (  0.0000000  0.0000000 -1.0000000 )       ( -4.0528492 )


      isym = 14     inv. 180 deg rotation - cart. axis [0,0,1]   

 cryst.   s(14) = (     1          0          0      )    f =(  0.0000000 )
                  (     0          1          0      )       (  0.0000000 )
                  (     0          0         -1      )       ( -0.5000000 )

 cart.    s(14) = (  1.0000000  0.0000000  0.0000000 )    f =(  0.0000000 )
                  (  0.0000000  1.0000000  0.0000000 )       (  0.0000000 )
                  (  0.0000000  0.0000000 -1.0000000 )       ( -4.0528492 )


      isym = 15     inv. 180 deg rotation - cart. axis [0,1,0]   

 cryst.   s(15) = (     1          0          0      )    f =( -0.3333333 )
                  (    -1         -1          0      )       (  0.3333333 )
                  (     0          0          1      )       (  0.0000000 )

 cart.    s(15) = (  1.0000000  0.0000000  0.0000000 )    f =( -0.5000000 )
                  (  0.0000000 -1.0000000  0.0000000 )       (  0.2886751 )
                  (  0.0000000  0.0000000  1.0000000 )       (  0.0000000 )


      isym = 16     inv. 180 deg rotation - cart. axis [1,0,0]   

 cryst.   s(16) = (    -1          0          0      )
                  (     1          1          0      )
                  (     0          0          1      )

 cart.    s(16) = ( -1.0000000 -0.0000000  0.0000000 )
                  (  0.0000000  1.0000000  0.0000000 )
                  (  0.0000000  0.0000000  1.0000000 )


      isym = 17     inv.  60 deg rotation - cryst. axis [0,0,1]  

 cryst.   s(17) = (    -1         -1          0      )    f =(  0.0000000 )
                  (     1          0          0      )       (  0.0000000 )
                  (     0          0         -1      )       ( -0.5000000 )

 cart.    s(17) = ( -0.5000000  0.8660254  0.0000000 )    f =(  0.0000000 )
                  ( -0.8660254 -0.5000000  0.0000000 )       (  0.0000000 )
                  (  0.0000000  0.0000000 -1.0000000 )       ( -4.0528492 )


      isym = 18     inv.  60 deg rotation - cryst. axis [0,0,-1] 

 cryst.   s(18) = (     0          1          0      )    f =(  0.0000000 )
                  (    -1         -1          0      )       (  0.0000000 )
                  (     0          0         -1      )       ( -0.5000000 )

 cart.    s(18) = ( -0.5000000 -0.8660254  0.0000000 )    f =(  0.0000000 )
                  (  0.8660254 -0.5000000  0.0000000 )       (  0.0000000 )
                  (  0.0000000  0.0000000 -1.0000000 )       ( -4.0528492 )


      isym = 19     inv. 120 deg rotation - cryst. axis [0,0,1]  

 cryst.   s(19) = (     0         -1          0      )    f =( -0.3333333 )
                  (     1          1          0      )       (  0.3333333 )
                  (     0          0         -1      )       ( -0.5000000 )

 cart.    s(19) = (  0.5000000  0.8660254  0.0000000 )    f =( -0.5000000 )
                  ( -0.8660254  0.5000000  0.0000000 )       (  0.2886751 )
                  (  0.0000000  0.0000000 -1.0000000 )       ( -4.0528492 )


      isym = 20     inv. 120 deg rotation - cryst. axis [0,0,-1] 

 cryst.   s(20) = (     1          1          0      )    f =( -0.3333333 )
                  (    -1          0          0      )       (  0.3333333 )
                  (     0          0         -1      )       ( -0.5000000 )

 cart.    s(20) = (  0.5000000 -0.8660254  0.0000000 )    f =( -0.5000000 )
                  (  0.8660254  0.5000000  0.0000000 )       (  0.2886751 )
                  (  0.0000000  0.0000000 -1.0000000 )       ( -4.0528492 )


      isym = 21     inv. 180 deg rotation - cryst. axis [1,-1,0] 

 cryst.   s(21) = (     0          1          0      )    f =( -0.3333333 )
                  (     1          0          0      )       (  0.3333333 )
                  (     0          0          1      )       (  0.0000000 )

 cart.    s(21) = ( -0.5000000  0.8660254  0.0000000 )    f =( -0.5000000 )
                  (  0.8660254  0.5000000  0.0000000 )       (  0.2886751 )
                  (  0.0000000  0.0000000  1.0000000 )       (  0.0000000 )


      isym = 22     inv. 180 deg rotation - cryst. axis [2,1,0]  

 cryst.   s(22) = (    -1         -1          0      )    f =( -0.3333333 )
                  (     0          1          0      )       (  0.3333333 )
                  (     0          0          1      )       (  0.0000000 )

 cart.    s(22) = ( -0.5000000 -0.8660254  0.0000000 )    f =( -0.5000000 )
                  ( -0.8660254  0.5000000  0.0000000 )       (  0.2886751 )
                  (  0.0000000  0.0000000  1.0000000 )       (  0.0000000 )


      isym = 23     inv. 180 deg rotation - cryst. axis [0,1,0]  

 cryst.   s(23) = (     1          1          0      )
                  (     0         -1          0      )
                  (     0          0          1      )

 cart.    s(23) = (  0.5000000  0.8660254  0.0000000 )
                  (  0.8660254 -0.5000000  0.0000000 )
                  (  0.0000000  0.0000000  1.0000000 )


      isym = 24     inv. 180 deg rotation - cryst. axis [1,1,0]  

 cryst.   s(24) = (     0         -1          0      )
                  (    -1          0          0      )
                  (     0          0          1      )

 cart.    s(24) = (  0.5000000 -0.8660254  0.0000000 )
                  ( -0.8660254 -0.5000000  0.0000000 )
                  (  0.0000000  0.0000000  1.0000000 )


     point group D_6h(6/mmm)
     there are 12 classes
     the character table:

       E     2C6   2C3   C2    3C2'  3C2'' i     2S3   2S6   s_h   3s_d  3s_v 
A_1g   1.00  1.00  1.00  1.00  1.00  1.00  1.00  1.00  1.00  1.00  1.00  1.00
A_2g   1.00  1.00  1.00  1.00 -1.00 -1.00  1.00  1.00  1.00  1.00 -1.00 -1.00
B_1g   1.00 -1.00  1.00 -1.00  1.00 -1.00  1.00 -1.00  1.00 -1.00  1.00 -1.00
B_2g   1.00 -1.00  1.00 -1.00 -1.00  1.00  1.00 -1.00  1.00 -1.00 -1.00  1.00
E_1g   2.00  1.00 -1.00 -2.00  0.00  0.00  2.00  1.00 -1.00 -2.00  0.00  0.00
E_2g   2.00 -1.00 -1.00  2.00  0.00  0.00  2.00 -1.00 -1.00  2.00  0.00  0.00
A_1u   1.00  1.00  1.00  1.00  1.00  1.00 -1.00 -1.00 -1.00 -1.00 -1.00 -1.00
A_2u   1.00  1.00  1.00  1.00 -1.00 -1.00 -1.00 -1.00 -1.00 -1.00  1.00  1.00
B_1u   1.00 -1.00  1.00 -1.00  1.00 -1.00 -1.00  1.00 -1.00  1.00 -1.00  1.00
B_2u   1.00 -1.00  1.00 -1.00 -1.00  1.00 -1.00  1.00 -1.00  1.00  1.00 -1.00
E_1u   2.00  1.00 -1.00 -2.00  0.00  0.00 -2.00 -1.00  1.00  2.00  0.00  0.00
E_2u   2.00 -1.00 -1.00  2.00  0.00  0.00 -2.00  1.00  1.00 -2.00  0.00  0.00

     the symmetry operations in each class and the name of the first element:

     E        1
          identity                                               
     2C6      5    6
           60 deg rotation - cryst. axis [0,0,1]                 
     2C3      7    8
          120 deg rotation - cryst. axis [0,0,1]                 
     C2       2
          180 deg rotation - cart. axis [0,0,1]                  
     3C2'     4   12   11
          180 deg rotation - cart. axis [1,0,0]                  
     3C2''    3    9   10
          180 deg rotation - cart. axis [0,1,0]                  
     i       13
          inversion                                              
     2S3     17   18
          inv.  60 deg rotation - cryst. axis [0,0,1]            
     2S6     19   20
          inv. 120 deg rotation - cryst. axis [0,0,1]            
     s_h     14
          inv. 180 deg rotation - cart. axis [0,0,1]             
     3s_d    16   24   23
          inv. 180 deg rotation - cart. axis [1,0,0]             
     3s_v    15   21   22
          inv. 180 deg rotation - cart. axis [0,1,0]             

   Cartesian axes

     site n.     atom                  positions (alat units)
         1           C   tau(   1) = (   0.0000000   0.0000000   2.0264246  )
         2           C   tau(   2) = (  -0.0000000   0.5773503   2.0264246  )

   Crystallographic axes

     site n.     atom                  positions (cryst. coord.)
         1           C   tau(   1) = (  0.0000000  0.0000000  0.2500000  )
         2           C   tau(   2) = (  0.3333333  0.6666667  0.2500000  )

     number of k points=   151
                       cart. coord. in units 2pi/alat
        k(    1) = (  -0.3333333   0.5773503   0.0000000), wk =   0.0132450
        k(    2) = (  -0.3266667   0.5658033   0.0000000), wk =   0.0132450
        k(    3) = (  -0.3200000   0.5542563   0.0000000), wk =   0.0132450
        k(    4) = (  -0.3133333   0.5427093   0.0000000), wk =   0.0132450
        k(    5) = (  -0.3066667   0.5311622   0.0000000), wk =   0.0132450
        k(    6) = (  -0.3000000   0.5196152   0.0000000), wk =   0.0132450
        k(    7) = (  -0.2933333   0.5080682   0.0000000), wk =   0.0132450
        k(    8) = (  -0.2866667   0.4965212   0.0000000), wk =   0.0132450
        k(    9) = (  -0.2800000   0.4849742   0.0000000), wk =   0.0132450
        k(   10) = (  -0.2733333   0.4734272   0.0000000), wk =   0.0132450
        k(   11) = (  -0.2666667   0.4618802   0.0000000), wk =   0.0132450
        k(   12) = (  -0.2600000   0.4503332   0.0000000), wk =   0.0132450
        k(   13) = (  -0.2533333   0.4387862   0.0000000), wk =   0.0132450
        k(   14) = (  -0.2466667   0.4272392   0.0000000), wk =   0.0132450
        k(   15) = (  -0.2400000   0.4156922   0.0000000), wk =   0.0132450
        k(   16) = (  -0.2333333   0.4041452   0.0000000), wk =   0.0132450
        k(   17) = (  -0.2266667   0.3925982   0.0000000), wk =   0.0132450
        k(   18) = (  -0.2200000   0.3810512   0.0000000), wk =   0.0132450
        k(   19) = (  -0.2133333   0.3695042   0.0000000), wk =   0.0132450
        k(   20) = (  -0.2066667   0.3579572   0.0000000), wk =   0.0132450
        k(   21) = (  -0.2000000   0.3464102   0.0000000), wk =   0.0132450
        k(   22) = (  -0.1933333   0.3348632   0.0000000), wk =   0.0132450
        k(   23) = (  -0.1866667   0.3233162   0.0000000), wk =   0.0132450
        k(   24) = (  -0.1800000   0.3117691   0.0000000), wk =   0.0132450
        k(   25) = (  -0.1733333   0.3002221   0.0000000), wk =   0.0132450
        k(   26) = (  -0.1666667   0.2886751   0.0000000), wk =   0.0132450
        k(   27) = (  -0.1600000   0.2771281   0.0000000), wk =   0.0132450
        k(   28) = (  -0.1533333   0.2655811   0.0000000), wk =   0.0132450
        k(   29) = (  -0.1466667   0.2540341   0.0000000), wk =   0.0132450
        k(   30) = (  -0.1400000   0.2424871   0.0000000), wk =   0.0132450
        k(   31) = (  -0.1333333   0.2309401   0.0000000), wk =   0.0132450
        k(   32) = (  -0.1266667   0.2193931   0.0000000), wk =   0.0132450
        k(   33) = (  -0.1200000   0.2078461   0.0000000), wk =   0.0132450
        k(   34) = (  -0.1133333   0.1962991   0.0000000), wk =   0.0132450
        k(   35) = (  -0.1066667   0.1847521   0.0000000), wk =   0.0132450
        k(   36) = (  -0.1000000   0.1732051   0.0000000), wk =   0.0132450
        k(   37) = (  -0.0933333   0.1616581   0.0000000), wk =   0.0132450
        k(   38) = (  -0.0866667   0.1501111   0.0000000), wk =   0.0132450
        k(   39) = (  -0.0800000   0.1385641   0.0000000), wk =   0.0132450
        k(   40) = (  -0.0733333   0.1270171   0.0000000), wk =   0.0132450
        k(   41) = (  -0.0666667   0.1154701   0.0000000), wk =   0.0132450
        k(   42) = (  -0.0600000   0.1039230   0.0000000), wk =   0.0132450
        k(   43) = (  -0.0533333   0.0923760   0.0000000), wk =   0.0132450
        k(   44) = (  -0.0466667   0.0808290   0.0000000), wk =   0.0132450
        k(   45) = (  -0.0400000   0.0692820   0.0000000), wk =   0.0132450
        k(   46) = (  -0.0333333   0.0577350   0.0000000), wk =   0.0132450
        k(   47) = (  -0.0266667   0.0461880   0.0000000), wk =   0.0132450
        k(   48) = (  -0.0200000   0.0346410   0.0000000), wk =   0.0132450
        k(   49) = (  -0.0133333   0.0230940   0.0000000), wk =   0.0132450
        k(   50) = (  -0.0066667   0.0115470   0.0000000), wk =   0.0132450
        k(   51) = (   0.0000000   0.0000000   0.0000000), wk =   0.0132450
        k(   52) = (   0.0000000   0.0115470   0.0000000), wk =   0.0132450
        k(   53) = (   0.0000000   0.0230940   0.0000000), wk =   0.0132450
        k(   54) = (   0.0000000   0.0346410   0.0000000), wk =   0.0132450
        k(   55) = (   0.0000000   0.0461880   0.0000000), wk =   0.0132450
        k(   56) = (   0.0000000   0.0577350   0.0000000), wk =   0.0132450
        k(   57) = (   0.0000000   0.0692820   0.0000000), wk =   0.0132450
        k(   58) = (   0.0000000   0.0808290   0.0000000), wk =   0.0132450
        k(   59) = (   0.0000000   0.0923760   0.0000000), wk =   0.0132450
        k(   60) = (   0.0000000   0.1039230   0.0000000), wk =   0.0132450
        k(   61) = (   0.0000000   0.1154701   0.0000000), wk =   0.0132450
        k(   62) = (   0.0000000   0.1270171   0.0000000), wk =   0.0132450
        k(   63) = (   0.0000000   0.1385641   0.0000000), wk =   0.0132450
        k(   64) = (   0.0000000   0.1501111   0.0000000), wk =   0.0132450
        k(   65) = (   0.0000000   0.1616581   0.0000000), wk =   0.0132450
        k(   66) = (   0.0000000   0.1732051   0.0000000), wk =   0.0132450
        k(   67) = (   0.0000000   0.1847521   0.0000000), wk =   0.0132450
        k(   68) = (   0.0000000   0.1962991   0.0000000), wk =   0.0132450
        k(   69) = (   0.0000000   0.2078461   0.0000000), wk =   0.0132450
        k(   70) = (   0.0000000   0.2193931   0.0000000), wk =   0.0132450
        k(   71) = (   0.0000000   0.2309401   0.0000000), wk =   0.0132450
        k(   72) = (   0.0000000   0.2424871   0.0000000), wk =   0.0132450
        k(   73) = (   0.0000000   0.2540341   0.0000000), wk =   0.0132450
        k(   74) = (   0.0000000   0.2655811   0.0000000), wk =   0.0132450
        k(   75) = (   0.0000000   0.2771281   0.0000000), wk =   0.0132450
        k(   76) = (   0.0000000   0.2886751   0.0000000), wk =   0.0132450
        k(   77) = (   0.0000000   0.3002221   0.0000000), wk =   0.0132450
        k(   78) = (   0.0000000   0.3117691   0.0000000), wk =   0.0132450
        k(   79) = (   0.0000000   0.3233162   0.0000000), wk =   0.0132450
        k(   80) = (   0.0000000   0.3348632   0.0000000), wk =   0.0132450
        k(   81) = (   0.0000000   0.3464102   0.0000000), wk =   0.0132450
        k(   82) = (   0.0000000   0.3579572   0.0000000), wk =   0.0132450
        k(   83) = (   0.0000000   0.3695042   0.0000000), wk =   0.0132450
        k(   84) = (   0.0000000   0.3810512   0.0000000), wk =   0.0132450
        k(   85) = (   0.0000000   0.3925982   0.0000000), wk =   0.0132450
        k(   86) = (   0.0000000   0.4041452   0.0000000), wk =   0.0132450
        k(   87) = (   0.0000000   0.4156922   0.0000000), wk =   0.0132450
        k(   88) = (   0.0000000   0.4272392   0.0000000), wk =   0.0132450
        k(   89) = (   0.0000000   0.4387862   0.0000000), wk =   0.0132450
        k(   90) = (   0.0000000   0.4503332   0.0000000), wk =   0.0132450
        k(   91) = (   0.0000000   0.4618802   0.0000000), wk =   0.0132450
        k(   92) = (   0.0000000   0.4734272   0.0000000), wk =   0.0132450
        k(   93) = (   0.0000000   0.4849742   0.0000000), wk =   0.0132450
        k(   94) = (   0.0000000   0.4965212   0.0000000), wk =   0.0132450
        k(   95) = (   0.0000000   0.5080682   0.0000000), wk =   0.0132450
        k(   96) = (   0.0000000   0.5196152   0.0000000), wk =   0.0132450
        k(   97) = (   0.0000000   0.5311622   0.0000000), wk =   0.0132450
        k(   98) = (   0.0000000   0.5427093   0.0000000), wk =   0.0132450
        k(   99) = (   0.0000000   0.5542563   0.0000000), wk =   0.0132450
        k(  100) = (   0.0000000   0.5658033   0.0000000), wk =   0.0132450
        k(  101) = (   0.0000000   0.5773503   0.0000000), wk =   0.0132450
        k(  102) = (  -0.0066667   0.5773503   0.0000000), wk =   0.0132450
        k(  103) = (  -0.0133333   0.5773503   0.0000000), wk =   0.0132450
        k(  104) = (  -0.0200000   0.5773503   0.0000000), wk =   0.0132450
        k(  105) = (  -0.0266667   0.5773503   0.0000000), wk =   0.0132450
        k(  106) = (  -0.0333333   0.5773503   0.0000000), wk =   0.0132450
        k(  107) = (  -0.0400000   0.5773503   0.0000000), wk =   0.0132450
        k(  108) = (  -0.0466667   0.5773503   0.0000000), wk =   0.0132450
        k(  109) = (  -0.0533333   0.5773503   0.0000000), wk =   0.0132450
        k(  110) = (  -0.0600000   0.5773503   0.0000000), wk =   0.0132450
        k(  111) = (  -0.0666667   0.5773503   0.0000000), wk =   0.0132450
        k(  112) = (  -0.0733333   0.5773503   0.0000000), wk =   0.0132450
        k(  113) = (  -0.0800000   0.5773503   0.0000000), wk =   0.0132450
        k(  114) = (  -0.0866667   0.5773503   0.0000000), wk =   0.0132450
        k(  115) = (  -0.0933333   0.5773503   0.0000000), wk =   0.0132450
        k(  116) = (  -0.1000000   0.5773503   0.0000000), wk =   0.0132450
        k(  117) = (  -0.1066667   0.5773503   0.0000000), wk =   0.0132450
        k(  118) = (  -0.1133333   0.5773503   0.0000000), wk =   0.0132450
        k(  119) = (  -0.1200000   0.5773503   0.0000000), wk =   0.0132450
        k(  120) = (  -0.1266667   0.5773503   0.0000000), wk =   0.0132450
        k(  121) = (  -0.1333333   0.5773503   0.0000000), wk =   0.0132450
        k(  122) = (  -0.1400000   0.5773503   0.0000000), wk =   0.0132450
        k(  123) = (  -0.1466667   0.5773503   0.0000000), wk =   0.0132450
        k(  124) = (  -0.1533333   0.5773503   0.0000000), wk =   0.0132450
        k(  125) = (  -0.1600000   0.5773503   0.0000000), wk =   0.0132450
        k(  126) = (  -0.1666667   0.5773503   0.0000000), wk =   0.0132450
        k(  127) = (  -0.1733333   0.5773503   0.0000000), wk =   0.0132450
        k(  128) = (  -0.1800000   0.5773503   0.0000000), wk =   0.0132450
        k(  129) = (  -0.1866667   0.5773503   0.0000000), wk =   0.0132450
        k(  130) = (  -0.1933333   0.5773503   0.0000000), wk =   0.0132450
        k(  131) = (  -0.2000000   0.5773503   0.0000000), wk =   0.0132450
        k(  132) = (  -0.2066667   0.5773503   0.0000000), wk =   0.0132450
        k(  133) = (  -0.2133333   0.5773503   0.0000000), wk =   0.0132450
        k(  134) = (  -0.2200000   0.5773503   0.0000000), wk =   0.0132450
        k(  135) = (  -0.2266667   0.5773503   0.0000000), wk =   0.0132450
        k(  136) = (  -0.2333333   0.5773503   0.0000000), wk =   0.0132450
        k(  137) = (  -0.2400000   0.5773503   0.0000000), wk =   0.0132450
        k(  138) = (  -0.2466667   0.5773503   0.0000000), wk =   0.0132450
        k(  139) = (  -0.2533333   0.5773503   0.0000000), wk =   0.0132450
        k(  140) = (  -0.2600000   0.5773503   0.0000000), wk =   0.0132450
        k(  141) = (  -0.2666667   0.5773503   0.0000000), wk =   0.0132450
        k(  142) = (  -0.2733333   0.5773503   0.0000000), wk =   0.0132450
        k(  143) = (  -0.2800000   0.5773503   0.0000000), wk =   0.0132450
        k(  144) = (  -0.2866667   0.5773503   0.0000000), wk =   0.0132450
        k(  145) = (  -0.2933333   0.5773503   0.0000000), wk =   0.0132450
        k(  146) = (  -0.3000000   0.5773503   0.0000000), wk =   0.0132450
        k(  147) = (  -0.3066667   0.5773503   0.0000000), wk =   0.0132450
        k(  148) = (  -0.3133333   0.5773503   0.0000000), wk =   0.0132450
        k(  149) = (  -0.3200000   0.5773503   0.0000000), wk =   0.0132450
        k(  150) = (  -0.3266667   0.5773503   0.0000000), wk =   0.0132450
        k(  151) = (  -0.3333333   0.5773503   0.0000000), wk =   0.0132450

                       cryst. coord.
        k(    1) = (  -0.3333333   0.6666667   0.0000000), wk =   0.0132450
        k(    2) = (  -0.3266667   0.6533333   0.0000000), wk =   0.0132450
        k(    3) = (  -0.3200000   0.6400000   0.0000000), wk =   0.0132450
        k(    4) = (  -0.3133333   0.6266667   0.0000000), wk =   0.0132450
        k(    5) = (  -0.3066667   0.6133333   0.0000000), wk =   0.0132450
        k(    6) = (  -0.3000000   0.6000000   0.0000000), wk =   0.0132450
        k(    7) = (  -0.2933333   0.5866667   0.0000000), wk =   0.0132450
        k(    8) = (  -0.2866667   0.5733333   0.0000000), wk =   0.0132450
        k(    9) = (  -0.2800000   0.5600000   0.0000000), wk =   0.0132450
        k(   10) = (  -0.2733333   0.5466667   0.0000000), wk =   0.0132450
        k(   11) = (  -0.2666667   0.5333333   0.0000000), wk =   0.0132450
        k(   12) = (  -0.2600000   0.5200000   0.0000000), wk =   0.0132450
        k(   13) = (  -0.2533333   0.5066667   0.0000000), wk =   0.0132450
        k(   14) = (  -0.2466667   0.4933333   0.0000000), wk =   0.0132450
        k(   15) = (  -0.2400000   0.4800000   0.0000000), wk =   0.0132450
        k(   16) = (  -0.2333333   0.4666667   0.0000000), wk =   0.0132450
        k(   17) = (  -0.2266667   0.4533333   0.0000000), wk =   0.0132450
        k(   18) = (  -0.2200000   0.4400000   0.0000000), wk =   0.0132450
        k(   19) = (  -0.2133333   0.4266667   0.0000000), wk =   0.0132450
        k(   20) = (  -0.2066667   0.4133333   0.0000000), wk =   0.0132450
        k(   21) = (  -0.2000000   0.4000000   0.0000000), wk =   0.0132450
        k(   22) = (  -0.1933333   0.3866667   0.0000000), wk =   0.0132450
        k(   23) = (  -0.1866667   0.3733333   0.0000000), wk =   0.0132450
        k(   24) = (  -0.1800000   0.3600000   0.0000000), wk =   0.0132450
        k(   25) = (  -0.1733333   0.3466667   0.0000000), wk =   0.0132450
        k(   26) = (  -0.1666667   0.3333333   0.0000000), wk =   0.0132450
        k(   27) = (  -0.1600000   0.3200000   0.0000000), wk =   0.0132450
        k(   28) = (  -0.1533333   0.3066667   0.0000000), wk =   0.0132450
        k(   29) = (  -0.1466667   0.2933333   0.0000000), wk =   0.0132450
        k(   30) = (  -0.1400000   0.2800000   0.0000000), wk =   0.0132450
        k(   31) = (  -0.1333333   0.2666667   0.0000000), wk =   0.0132450
        k(   32) = (  -0.1266667   0.2533333   0.0000000), wk =   0.0132450
        k(   33) = (  -0.1200000   0.2400000   0.0000000), wk =   0.0132450
        k(   34) = (  -0.1133333   0.2266667   0.0000000), wk =   0.0132450
        k(   35) = (  -0.1066667   0.2133333   0.0000000), wk =   0.0132450
        k(   36) = (  -0.1000000   0.2000000   0.0000000), wk =   0.0132450
        k(   37) = (  -0.0933333   0.1866667   0.0000000), wk =   0.0132450
        k(   38) = (  -0.0866667   0.1733333   0.0000000), wk =   0.0132450
        k(   39) = (  -0.0800000   0.1600000   0.0000000), wk =   0.0132450
        k(   40) = (  -0.0733333   0.1466667   0.0000000), wk =   0.0132450
        k(   41) = (  -0.0666667   0.1333333   0.0000000), wk =   0.0132450
        k(   42) = (  -0.0600000   0.1200000   0.0000000), wk =   0.0132450
        k(   43) = (  -0.0533333   0.1066667   0.0000000), wk =   0.0132450
        k(   44) = (  -0.0466667   0.0933333   0.0000000), wk =   0.0132450
        k(   45) = (  -0.0400000   0.0800000   0.0000000), wk =   0.0132450
        k(   46) = (  -0.0333333   0.0666667   0.0000000), wk =   0.0132450
        k(   47) = (  -0.0266667   0.0533333   0.0000000), wk =   0.0132450
        k(   48) = (  -0.0200000   0.0400000   0.0000000), wk =   0.0132450
        k(   49) = (  -0.0133333   0.0266667   0.0000000), wk =   0.0132450
        k(   50) = (  -0.0066667   0.0133333   0.0000000), wk =   0.0132450
        k(   51) = (   0.0000000   0.0000000   0.0000000), wk =   0.0132450
        k(   52) = (   0.0000000   0.0100000   0.0000000), wk =   0.0132450
        k(   53) = (   0.0000000   0.0200000   0.0000000), wk =   0.0132450
        k(   54) = (   0.0000000   0.0300000   0.0000000), wk =   0.0132450
        k(   55) = (   0.0000000   0.0400000   0.0000000), wk =   0.0132450
        k(   56) = (   0.0000000   0.0500000   0.0000000), wk =   0.0132450
        k(   57) = (   0.0000000   0.0600000   0.0000000), wk =   0.0132450
        k(   58) = (   0.0000000   0.0700000   0.0000000), wk =   0.0132450
        k(   59) = (   0.0000000   0.0800000   0.0000000), wk =   0.0132450
        k(   60) = (   0.0000000   0.0900000   0.0000000), wk =   0.0132450
        k(   61) = (   0.0000000   0.1000000   0.0000000), wk =   0.0132450
        k(   62) = (   0.0000000   0.1100000   0.0000000), wk =   0.0132450
        k(   63) = (   0.0000000   0.1200000   0.0000000), wk =   0.0132450
        k(   64) = (   0.0000000   0.1300000   0.0000000), wk =   0.0132450
        k(   65) = (   0.0000000   0.1400000   0.0000000), wk =   0.0132450
        k(   66) = (   0.0000000   0.1500000   0.0000000), wk =   0.0132450
        k(   67) = (   0.0000000   0.1600000   0.0000000), wk =   0.0132450
        k(   68) = (   0.0000000   0.1700000   0.0000000), wk =   0.0132450
        k(   69) = (   0.0000000   0.1800000   0.0000000), wk =   0.0132450
        k(   70) = (   0.0000000   0.1900000   0.0000000), wk =   0.0132450
        k(   71) = (   0.0000000   0.2000000   0.0000000), wk =   0.0132450
        k(   72) = (   0.0000000   0.2100000   0.0000000), wk =   0.0132450
        k(   73) = (   0.0000000   0.2200000   0.0000000), wk =   0.0132450
        k(   74) = (   0.0000000   0.2300000   0.0000000), wk =   0.0132450
        k(   75) = (   0.0000000   0.2400000   0.0000000), wk =   0.0132450
        k(   76) = (   0.0000000   0.2500000   0.0000000), wk =   0.0132450
        k(   77) = (   0.0000000   0.2600000   0.0000000), wk =   0.0132450
        k(   78) = (   0.0000000   0.2700000   0.0000000), wk =   0.0132450
        k(   79) = (   0.0000000   0.2800000   0.0000000), wk =   0.0132450
        k(   80) = (   0.0000000   0.2900000   0.0000000), wk =   0.0132450
        k(   81) = (   0.0000000   0.3000000   0.0000000), wk =   0.0132450
        k(   82) = (   0.0000000   0.3100000   0.0000000), wk =   0.0132450
        k(   83) = (   0.0000000   0.3200000   0.0000000), wk =   0.0132450
        k(   84) = (   0.0000000   0.3300000   0.0000000), wk =   0.0132450
        k(   85) = (   0.0000000   0.3400000   0.0000000), wk =   0.0132450
        k(   86) = (   0.0000000   0.3500000   0.0000000), wk =   0.0132450
        k(   87) = (   0.0000000   0.3600000   0.0000000), wk =   0.0132450
        k(   88) = (   0.0000000   0.3700000   0.0000000), wk =   0.0132450
        k(   89) = (   0.0000000   0.3800000   0.0000000), wk =   0.0132450
        k(   90) = (   0.0000000   0.3900000   0.0000000), wk =   0.0132450
        k(   91) = (   0.0000000   0.4000000   0.0000000), wk =   0.0132450
        k(   92) = (   0.0000000   0.4100000   0.0000000), wk =   0.0132450
        k(   93) = (   0.0000000   0.4200000   0.0000000), wk =   0.0132450
        k(   94) = (   0.0000000   0.4300000   0.0000000), wk =   0.0132450
        k(   95) = (   0.0000000   0.4400000   0.0000000), wk =   0.0132450
        k(   96) = (   0.0000000   0.4500000   0.0000000), wk =   0.0132450
        k(   97) = (   0.0000000   0.4600000   0.0000000), wk =   0.0132450
        k(   98) = (   0.0000000   0.4700000   0.0000000), wk =   0.0132450
        k(   99) = (   0.0000000   0.4800000   0.0000000), wk =   0.0132450
        k(  100) = (   0.0000000   0.4900000   0.0000000), wk =   0.0132450
        k(  101) = (   0.0000000   0.5000000   0.0000000), wk =   0.0132450
        k(  102) = (  -0.0066667   0.5033333   0.0000000), wk =   0.0132450
        k(  103) = (  -0.0133333   0.5066667   0.0000000), wk =   0.0132450
        k(  104) = (  -0.0200000   0.5100000   0.0000000), wk =   0.0132450
        k(  105) = (  -0.0266667   0.5133333   0.0000000), wk =   0.0132450
        k(  106) = (  -0.0333333   0.5166667   0.0000000), wk =   0.0132450
        k(  107) = (  -0.0400000   0.5200000   0.0000000), wk =   0.0132450
        k(  108) = (  -0.0466667   0.5233333   0.0000000), wk =   0.0132450
        k(  109) = (  -0.0533333   0.5266667   0.0000000), wk =   0.0132450
        k(  110) = (  -0.0600000   0.5300000   0.0000000), wk =   0.0132450
        k(  111) = (  -0.0666667   0.5333333   0.0000000), wk =   0.0132450
        k(  112) = (  -0.0733333   0.5366667   0.0000000), wk =   0.0132450
        k(  113) = (  -0.0800000   0.5400000   0.0000000), wk =   0.0132450
        k(  114) = (  -0.0866667   0.5433333   0.0000000), wk =   0.0132450
        k(  115) = (  -0.0933333   0.5466667   0.0000000), wk =   0.0132450
        k(  116) = (  -0.1000000   0.5500000   0.0000000), wk =   0.0132450
        k(  117) = (  -0.1066667   0.5533333   0.0000000), wk =   0.0132450
        k(  118) = (  -0.1133333   0.5566667   0.0000000), wk =   0.0132450
        k(  119) = (  -0.1200000   0.5600000   0.0000000), wk =   0.0132450
        k(  120) = (  -0.1266667   0.5633333   0.0000000), wk =   0.0132450
        k(  121) = (  -0.1333333   0.5666667   0.0000000), wk =   0.0132450
        k(  122) = (  -0.1400000   0.5700000   0.0000000), wk =   0.0132450
        k(  123) = (  -0.1466667   0.5733333   0.0000000), wk =   0.0132450
        k(  124) = (  -0.1533333   0.5766667   0.0000000), wk =   0.0132450
        k(  125) = (  -0.1600000   0.5800000   0.0000000), wk =   0.0132450
        k(  126) = (  -0.1666667   0.5833333   0.0000000), wk =   0.0132450
        k(  127) = (  -0.1733333   0.5866667   0.0000000), wk =   0.0132450
        k(  128) = (  -0.1800000   0.5900000   0.0000000), wk =   0.0132450
        k(  129) = (  -0.1866667   0.5933333   0.0000000), wk =   0.0132450
        k(  130) = (  -0.1933333   0.5966667   0.0000000), wk =   0.0132450
        k(  131) = (  -0.2000000   0.6000000   0.0000000), wk =   0.0132450
        k(  132) = (  -0.2066667   0.6033333   0.0000000), wk =   0.0132450
        k(  133) = (  -0.2133333   0.6066667   0.0000000), wk =   0.0132450
        k(  134) = (  -0.2200000   0.6100000   0.0000000), wk =   0.0132450
        k(  135) = (  -0.2266667   0.6133333   0.0000000), wk =   0.0132450
        k(  136) = (  -0.2333333   0.6166667   0.0000000), wk =   0.0132450
        k(  137) = (  -0.2400000   0.6200000   0.0000000), wk =   0.0132450
        k(  138) = (  -0.2466667   0.6233333   0.0000000), wk =   0.0132450
        k(  139) = (  -0.2533333   0.6266667   0.0000000), wk =   0.0132450
        k(  140) = (  -0.2600000   0.6300000   0.0000000), wk =   0.0132450
        k(  141) = (  -0.2666667   0.6333333   0.0000000), wk =   0.0132450
        k(  142) = (  -0.2733333   0.6366667   0.0000000), wk =   0.0132450
        k(  143) = (  -0.2800000   0.6400000   0.0000000), wk =   0.0132450
        k(  144) = (  -0.2866667   0.6433333   0.0000000), wk =   0.0132450
        k(  145) = (  -0.2933333   0.6466667   0.0000000), wk =   0.0132450
        k(  146) = (  -0.3000000   0.6500000   0.0000000), wk =   0.0132450
        k(  147) = (  -0.3066667   0.6533333   0.0000000), wk =   0.0132450
        k(  148) = (  -0.3133333   0.6566667   0.0000000), wk =   0.0132450
        k(  149) = (  -0.3200000   0.6600000   0.0000000), wk =   0.0132450
        k(  150) = (  -0.3266667   0.6633333   0.0000000), wk =   0.0132450
        k(  151) = (  -0.3333333   0.6666667   0.0000000), wk =   0.0132450

     Dense  grid:    96043 G-vectors     FFT dimensions: (  30,  30, 250)

     Smooth grid:    34107 G-vectors     FFT dimensions: (  24,  24, 180)

     Dynamical RAM for                 wfc:       0.52 MB

     Dynamical RAM for     wfc (w. buffer):       0.52 MB

     Dynamical RAM for           str. fact:       0.73 MB

     Dynamical RAM for           local pot:       0.00 MB

     Dynamical RAM for          nlocal pot:       0.52 MB

     Dynamical RAM for                qrad:       0.46 MB

     Dynamical RAM for          rho,v,vnew:       4.77 MB

     Dynamical RAM for           G-vectors:       2.88 MB

     Dynamical RAM for          h,s,v(r/c):       0.05 MB

     Dynamical RAM for          <psi|beta>:       0.00 MB

     Dynamical RAM for                 psi:       1.04 MB

     Dynamical RAM for                hpsi:       1.04 MB

     Dynamical RAM for                spsi:       1.04 MB

     Dynamical RAM for      wfcinit/wfcrot:       1.04 MB

     Dynamical RAM for           addusdens:      32.97 MB

     Estimated static dynamical RAM per process >      15.64 MB

     Estimated max dynamical RAM per process >      48.61 MB

     Estimated total dynamical RAM >      97.21 MB

     Check: negative core charge=   -0.000002

     The potential is recalculated from file :
     ../SCF/out/graphene.save/charge-density


     negative rho (up, down):  1.273E-04 0.000E+00
     Starting wfcs are    8 randomized atomic wfcs +    8 random wfcs
     Checking if some PAW data can be deallocated... 

     Band Structure Calculation
     Davidson diagonalization with overlap

     Computing kpt #:     1  of   151
     total cpu time spent up to now is       15.4 secs

     Computing kpt #:     2  of   151
     total cpu time spent up to now is       27.4 secs

     Computing kpt #:     3  of   151
     total cpu time spent up to now is       42.2 secs

     Computing kpt #:     4  of   151
     total cpu time spent up to now is       53.7 secs

     Computing kpt #:     5  of   151
     total cpu time spent up to now is       64.1 secs

     Computing kpt #:     6  of   151
     c_bands:  2 eigenvalues not converged
     total cpu time spent up to now is       78.5 secs

     Computing kpt #:     7  of   151
     total cpu time spent up to now is       89.8 secs

     Computing kpt #:     8  of   151
     total cpu time spent up to now is       99.8 secs

     Computing kpt #:     9  of   151
     total cpu time spent up to now is      111.3 secs

     Computing kpt #:    10  of   151
     total cpu time spent up to now is      121.5 secs

     Computing kpt #:    11  of   151
     total cpu time spent up to now is      132.5 secs

     Computing kpt #:    12  of   151
     total cpu time spent up to now is      140.7 secs

     Computing kpt #:    13  of   151
     total cpu time spent up to now is      149.0 secs

     Computing kpt #:    14  of   151
     total cpu time spent up to now is      156.5 secs

     Computing kpt #:    15  of   151
     total cpu time spent up to now is      164.1 secs

     Computing kpt #:    16  of   151
     total cpu time spent up to now is      171.8 secs

     Computing kpt #:    17  of   151
     total cpu time spent up to now is      179.1 secs

     Computing kpt #:    18  of   151
     total cpu time spent up to now is      186.8 secs

     Computing kpt #:    19  of   151
     total cpu time spent up to now is      194.4 secs

     Computing kpt #:    20  of   151
     total cpu time spent up to now is      200.5 secs

     Computing kpt #:    21  of   151
     total cpu time spent up to now is      205.7 secs

     Computing kpt #:    22  of   151
     total cpu time spent up to now is      212.1 secs

     Computing kpt #:    23  of   151
     total cpu time spent up to now is      218.1 secs

     Computing kpt #:    24  of   151
     total cpu time spent up to now is      223.5 secs

     Computing kpt #:    25  of   151
     total cpu time spent up to now is      230.6 secs

     Computing kpt #:    26  of   151
     total cpu time spent up to now is      237.0 secs

     Computing kpt #:    27  of   151
     total cpu time spent up to now is      243.8 secs

     Computing kpt #:    28  of   151
     total cpu time spent up to now is      254.6 secs

     Computing kpt #:    29  of   151
     total cpu time spent up to now is      261.5 secs

     Computing kpt #:    30  of   151
     total cpu time spent up to now is      266.6 secs

     Computing kpt #:    31  of   151
     total cpu time spent up to now is      272.7 secs

     Computing kpt #:    32  of   151
     total cpu time spent up to now is      278.6 secs

     Computing kpt #:    33  of   151
     total cpu time spent up to now is      284.4 secs

     Computing kpt #:    34  of   151
     total cpu time spent up to now is      290.2 secs

     Computing kpt #:    35  of   151
     total cpu time spent up to now is      295.6 secs

     Computing kpt #:    36  of   151
     total cpu time spent up to now is      301.4 secs

     Computing kpt #:    37  of   151
     total cpu time spent up to now is      306.8 secs

     Computing kpt #:    38  of   151
     total cpu time spent up to now is      312.4 secs

     Computing kpt #:    39  of   151
     total cpu time spent up to now is      317.7 secs

     Computing kpt #:    40  of   151
     total cpu time spent up to now is      322.7 secs

     Computing kpt #:    41  of   151
     total cpu time spent up to now is      328.8 secs

     Computing kpt #:    42  of   151
     total cpu time spent up to now is      335.3 secs

     Computing kpt #:    43  of   151
     total cpu time spent up to now is      340.6 secs

     Computing kpt #:    44  of   151
     total cpu time spent up to now is      346.0 secs

     Computing kpt #:    45  of   151
     total cpu time spent up to now is      351.6 secs

     Computing kpt #:    46  of   151
     total cpu time spent up to now is      358.1 secs

     Computing kpt #:    47  of   151
     total cpu time spent up to now is      364.5 secs

     Computing kpt #:    48  of   151
     total cpu time spent up to now is      371.1 secs

     Computing kpt #:    49  of   151
     total cpu time spent up to now is      376.6 secs

     Computing kpt #:    50  of   151
     total cpu time spent up to now is      381.6 secs

     Computing kpt #:    51  of   151
     total cpu time spent up to now is      386.3 secs

     Computing kpt #:    52  of   151
     total cpu time spent up to now is      391.6 secs

     Computing kpt #:    53  of   151
     total cpu time spent up to now is      397.2 secs

     Computing kpt #:    54  of   151
     total cpu time spent up to now is      402.9 secs

     Computing kpt #:    55  of   151
     total cpu time spent up to now is      408.4 secs

     Computing kpt #:    56  of   151
     total cpu time spent up to now is      414.4 secs

     Computing kpt #:    57  of   151
     total cpu time spent up to now is      421.4 secs

     Computing kpt #:    58  of   151
     total cpu time spent up to now is      427.9 secs

     Computing kpt #:    59  of   151
     total cpu time spent up to now is      433.7 secs

     Computing kpt #:    60  of   151
     total cpu time spent up to now is      439.6 secs

     Computing kpt #:    61  of   151
     total cpu time spent up to now is      445.2 secs

     Computing kpt #:    62  of   151
     total cpu time spent up to now is      451.3 secs

     Computing kpt #:    63  of   151
     total cpu time spent up to now is      457.1 secs

     Computing kpt #:    64  of   151
     total cpu time spent up to now is      462.6 secs

     Computing kpt #:    65  of   151
     total cpu time spent up to now is      467.9 secs

     Computing kpt #:    66  of   151
     total cpu time spent up to now is      473.2 secs

     Computing kpt #:    67  of   151
     total cpu time spent up to now is      478.9 secs

     Computing kpt #:    68  of   151
     total cpu time spent up to now is      484.1 secs

     Computing kpt #:    69  of   151
     total cpu time spent up to now is      490.4 secs

     Computing kpt #:    70  of   151
     total cpu time spent up to now is      497.7 secs

     Computing kpt #:    71  of   151
     total cpu time spent up to now is      503.5 secs

     Computing kpt #:    72  of   151
     total cpu time spent up to now is      509.1 secs

     Computing kpt #:    73  of   151
     total cpu time spent up to now is      516.2 secs

     Computing kpt #:    74  of   151
     total cpu time spent up to now is      523.3 secs

     Computing kpt #:    75  of   151
     total cpu time spent up to now is      529.7 secs

     Computing kpt #:    76  of   151
     total cpu time spent up to now is      536.3 secs

     Computing kpt #:    77  of   151
     total cpu time spent up to now is      543.8 secs

     Computing kpt #:    78  of   151
     total cpu time spent up to now is      550.6 secs

     Computing kpt #:    79  of   151
     total cpu time spent up to now is      557.8 secs

     Computing kpt #:    80  of   151
     total cpu time spent up to now is      564.7 secs

     Computing kpt #:    81  of   151
     total cpu time spent up to now is      572.4 secs

     Computing kpt #:    82  of   151
     total cpu time spent up to now is      578.9 secs

     Computing kpt #:    83  of   151
     total cpu time spent up to now is      586.0 secs

     Computing kpt #:    84  of   151
     total cpu time spent up to now is      593.5 secs

     Computing kpt #:    85  of   151
     total cpu time spent up to now is      601.0 secs

     Computing kpt #:    86  of   151
     total cpu time spent up to now is      607.8 secs

     Computing kpt #:    87  of   151
     total cpu time spent up to now is      614.2 secs

     Computing kpt #:    88  of   151
     total cpu time spent up to now is      620.7 secs

     Computing kpt #:    89  of   151
     total cpu time spent up to now is      628.2 secs

     Computing kpt #:    90  of   151
     total cpu time spent up to now is      639.1 secs

     Computing kpt #:    91  of   151
     total cpu time spent up to now is      647.3 secs

     Computing kpt #:    92  of   151
     total cpu time spent up to now is      659.4 secs

     Computing kpt #:    93  of   151
     total cpu time spent up to now is      667.8 secs

     Computing kpt #:    94  of   151
     total cpu time spent up to now is      677.0 secs

     Computing kpt #:    95  of   151
     total cpu time spent up to now is      684.9 secs

     Computing kpt #:    96  of   151
     total cpu time spent up to now is      695.3 secs

     Computing kpt #:    97  of   151
     total cpu time spent up to now is      705.6 secs

     Computing kpt #:    98  of   151
     total cpu time spent up to now is      715.0 secs

     Computing kpt #:    99  of   151
     total cpu time spent up to now is      725.1 secs

     Computing kpt #:   100  of   151
     total cpu time spent up to now is      734.5 secs

     Computing kpt #:   101  of   151
     total cpu time spent up to now is      742.7 secs

     Computing kpt #:   102  of   151
     total cpu time spent up to now is      751.1 secs

     Computing kpt #:   103  of   151
     total cpu time spent up to now is      759.9 secs

     Computing kpt #:   104  of   151
     total cpu time spent up to now is      769.5 secs

     Computing kpt #:   105  of   151
     total cpu time spent up to now is      777.8 secs

     Computing kpt #:   106  of   151
     total cpu time spent up to now is      786.0 secs

     Computing kpt #:   107  of   151
     total cpu time spent up to now is      794.3 secs

     Computing kpt #:   108  of   151
     total cpu time spent up to now is      803.3 secs

     Computing kpt #:   109  of   151
     total cpu time spent up to now is      812.2 secs

     Computing kpt #:   110  of   151
     total cpu time spent up to now is      821.1 secs

     Computing kpt #:   111  of   151
     total cpu time spent up to now is      831.1 secs

     Computing kpt #:   112  of   151
     total cpu time spent up to now is      839.9 secs

     Computing kpt #:   113  of   151
     total cpu time spent up to now is      849.2 secs

     Computing kpt #:   114  of   151
     total cpu time spent up to now is      858.3 secs

     Computing kpt #:   115  of   151
     total cpu time spent up to now is      867.3 secs

     Computing kpt #:   116  of   151
     total cpu time spent up to now is      876.7 secs

     Computing kpt #:   117  of   151
     total cpu time spent up to now is      886.6 secs

     Computing kpt #:   118  of   151
     total cpu time spent up to now is      896.4 secs

     Computing kpt #:   119  of   151
     total cpu time spent up to now is      907.0 secs

     Computing kpt #:   120  of   151
     total cpu time spent up to now is      916.9 secs

     Computing kpt #:   121  of   151
     total cpu time spent up to now is      927.0 secs

     Computing kpt #:   122  of   151
     total cpu time spent up to now is      937.6 secs

     Computing kpt #:   123  of   151
     total cpu time spent up to now is      947.9 secs

     Computing kpt #:   124  of   151
     total cpu time spent up to now is      958.0 secs

     Computing kpt #:   125  of   151
     total cpu time spent up to now is      969.0 secs

     Computing kpt #:   126  of   151
     total cpu time spent up to now is      978.6 secs

     Computing kpt #:   127  of   151
     total cpu time spent up to now is      988.8 secs

     Computing kpt #:   128  of   151
     total cpu time spent up to now is      998.6 secs

     Computing kpt #:   129  of   151
     total cpu time spent up to now is     1009.1 secs

     Computing kpt #:   130  of   151
     total cpu time spent up to now is     1020.5 secs

     Computing kpt #:   131  of   151
     total cpu time spent up to now is     1031.3 secs

     Computing kpt #:   132  of   151
     total cpu time spent up to now is     1041.6 secs

     Computing kpt #:   133  of   151
     total cpu time spent up to now is     1053.0 secs

     Computing kpt #:   134  of   151
     total cpu time spent up to now is     1063.2 secs

     Computing kpt #:   135  of   151
     total cpu time spent up to now is     1074.8 secs

     Computing kpt #:   136  of   151
     total cpu time spent up to now is     1086.4 secs

     Computing kpt #:   137  of   151
     total cpu time spent up to now is     1096.6 secs

     Computing kpt #:   138  of   151
     total cpu time spent up to now is     1107.9 secs

     Computing kpt #:   139  of   151
     total cpu time spent up to now is     1120.4 secs

     Computing kpt #:   140  of   151
     total cpu time spent up to now is     1131.7 secs

     Computing kpt #:   141  of   151
     total cpu time spent up to now is     1141.5 secs

     Computing kpt #:   142  of   151
     total cpu time spent up to now is     1151.8 secs

     Computing kpt #:   143  of   151
     total cpu time spent up to now is     1162.1 secs

     Computing kpt #:   144  of   151
     total cpu time spent up to now is     1176.2 secs

     Computing kpt #:   145  of   151
     total cpu time spent up to now is     1188.9 secs

     Computing kpt #:   146  of   151
     c_bands:  1 eigenvalues not converged
     total cpu time spent up to now is     1204.1 secs

     Computing kpt #:   147  of   151
     c_bands:  1 eigenvalues not converged
     total cpu time spent up to now is     1219.9 secs

     Computing kpt #:   148  of   151
     total cpu time spent up to now is     1233.7 secs

     Computing kpt #:   149  of   151
     total cpu time spent up to now is     1245.7 secs

     Computing kpt #:   150  of   151
     total cpu time spent up to now is     1258.8 secs

     Computing kpt #:   151  of   151
     total cpu time spent up to now is     1270.7 secs

     ethr =  1.25E-12,  avg # of iterations = 58.1

     total cpu time spent up to now is     1270.7 secs

     End of band structure calculation

          k =-0.3333 0.5774 0.0000 (  4251 PWs)   bands (ev):

   -14.9609 -14.9609 -12.9147  -2.3546  -2.3546   8.2592  10.5074  10.5074
    11.1048  12.3586  12.3586  12.4772  12.4772  12.5372  12.7950  13.1576

          k =-0.3267 0.5658 0.0000 (  4243 PWs)   bands (ev):

   -15.1109 -14.8248 -12.8946  -2.5445  -2.1659   8.2658  10.3910  10.5660
    11.0984  12.0492  12.0941  12.5792  12.6773  12.7119  12.8375  13.0287

          k =-0.3200 0.5543 0.0000 (  4231 PWs)   bands (ev):

   -15.2884 -14.6835 -12.8392  -2.7427  -1.9705   8.2841  10.1844  10.6085
    11.0842  11.6795  11.6909  12.6849  12.7589  12.8084  12.8790  12.9667

          k =-0.3133 0.5427 0.0000 (  4229 PWs)   bands (ev):

   -15.4856 -14.5370 -12.7563  -2.9485  -1.7684   8.3109   9.9162  10.6341
    11.0473  11.2998  11.3048  12.3650  12.4839  13.0460  13.0811  13.1472

          k =-0.3067 0.5312 0.0000 (  4223 PWs)   bands (ev):

   -15.6961 -14.3855 -12.6519  -3.1607  -1.5599   8.3418   9.6124  10.6429
    10.8495  10.9369  11.0522  12.0191  12.1501  13.2837  13.2921  13.3428

          k =-0.3000 0.5196 0.0000 (  4225 PWs)   bands (ev):

   -15.9151 -14.2289 -12.5308  -3.3784  -1.3449   8.3701   9.2894  10.4751
    10.5820  10.6358  10.9597  11.6764  11.8004  13.4886  13.5189  13.5325

          k =-0.2933 0.5081 0.0000 (  4223 PWs)   bands (ev):

   -16.1392 -14.0672 -12.3964  -3.6005  -1.1236   8.3864   8.9570  10.0936
    10.2450  10.6143  10.8512  11.3478  11.4498  13.2755  13.4985  13.6985

          k =-0.2867 0.4965 0.0000 (  4227 PWs)   bands (ev):

   -16.3658 -13.9005 -12.2510  -3.8261  -0.8962   8.3769   8.6212   9.7176
     9.9317  10.5801  10.7109  11.0420  11.1103  12.9716  13.2303  13.9158

          k =-0.2800 0.4850 0.0000 (  4225 PWs)   bands (ev):

   -16.5930 -13.7289 -12.0965  -4.0542  -0.6627   8.2854   8.3245   9.3489
     9.6468  10.5229  10.5352  10.7691  10.8030  12.6658  12.9152  14.1420

          k =-0.2733 0.4734 0.0000 (  4233 PWs)   bands (ev):

   -16.8196 -13.5524 -11.9341  -4.2840  -0.4234   7.9522   8.2142   8.9882
     9.3895  10.2637  10.4814  10.5407  10.5565  12.3724  12.5902  14.3777

          k =-0.2667 0.4619 0.0000 (  4239 PWs)   bands (ev):

   -17.0445 -13.3710 -11.7649  -4.5147  -0.1784   7.6229   8.0425   8.6357
     9.1479   9.9556  10.3529  10.3647  10.4203  12.1014  12.2642  14.6223

          k =-0.2600 0.4503 0.0000 (  4239 PWs)   bands (ev):

   -17.2670 -13.1849 -11.5896  -4.7454   0.0721   7.2988   7.8211   8.2915
     8.9048   9.6340  10.1606  10.2349  10.3533  11.8642  11.9411  14.5005

          k =-0.2533 0.4388 0.0000 (  4235 PWs)   bands (ev):

   -17.4865 -12.9940 -11.4090  -4.9755   0.3280   6.9807   7.5677   7.9558
     8.6506   9.3126   9.9691  10.1280  10.2815  11.6229  11.6744  14.2440

          k =-0.2467 0.4272 0.0000 (  4231 PWs)   bands (ev):

   -17.7025 -12.7985 -11.2236  -5.2043   0.5889   6.6690   7.2968   7.6287
     8.3852   8.9956   9.7766  10.0133  10.2059  11.3106  11.5449  13.9923

          k =-0.2400 0.4157 0.0000 (  4239 PWs)   bands (ev):

   -17.9146 -12.5985 -11.0338  -5.4313   0.8547   6.3642   7.0180   7.3101
     8.1128   8.6850   9.5833   9.8686  10.1272  11.0049  11.4783  13.7574

          k =-0.2333 0.4041 0.0000 (  4239 PWs)   bands (ev):

   -18.1225 -12.3940 -10.8402  -5.6558   1.1252   6.0666   6.7373   7.0001
     7.8379   8.3816   9.3901   9.6888  10.0462  10.7065  11.4604  13.5503

          k =-0.2267 0.3926 0.0000 (  4231 PWs)   bands (ev):

   -18.3259 -12.1852 -10.6431  -5.8775   1.4000   5.7764   6.4581   6.6988
     7.5636   8.0858   9.1979   9.4815   9.9632  10.4156  11.4644  13.3837

          k =-0.2200 0.3811 0.0000 (  4239 PWs)   bands (ev):

   -18.5246 -11.9721 -10.4430  -6.0958   1.6788   5.4940   6.1828   6.4061
     7.2924   7.7979   9.0075   9.2568   9.8787  10.1326  11.4598  13.1919

          k =-0.2133 0.3695 0.0000 (  4239 PWs)   bands (ev):

   -18.7185 -11.7549 -10.2402  -6.3104   1.9614   5.2193   5.9126   6.1221
     7.0256   7.5181   8.8198   9.0231   9.7928   9.8576  11.4213  12.9228

          k =-0.2067 0.3580 0.0000 (  4245 PWs)   bands (ev):

   -18.9073 -11.5338 -10.0352  -6.5208   2.2474   4.9525   5.6485   5.8468
     6.7645   7.2466   8.6353   8.7859   9.5907   9.7057  11.3375  12.6606

          k =-0.2000 0.3464 0.0000 (  4239 PWs)   bands (ev):

   -19.0910 -11.3089  -9.8283  -6.7268   2.5364   4.6938   5.3912   5.5801
     6.5098   6.9834   8.4546   8.5491   9.3323   9.6175  11.2119  12.4056

          k =-0.1933 0.3349 0.0000 (  4231 PWs)   bands (ev):

   -19.2693 -11.0804  -9.6200  -6.9280   2.8281   4.4432   5.1411   5.3222
     6.2619   6.7286   8.2782   8.3150   9.0822   9.5282  11.0562  12.1582

          k =-0.1867 0.3233 0.0000 (  4239 PWs)   bands (ev):

   -19.4422 -10.8485  -9.4107  -7.1241   3.1219   4.2008   4.8985   5.0730
     6.0212   6.4823   8.0852   8.1064   8.8408   9.4376  10.8817  11.9185

          k =-0.1800 0.3118 0.0000 (  4235 PWs)   bands (ev):

   -19.6097 -10.6133  -9.2009  -7.3150   3.4173   3.9666   4.6637   4.8326
     5.7882   6.2444   7.8608   7.9397   8.6081   9.3456  10.6971  11.6866

          k =-0.1733 0.3002 0.0000 (  4231 PWs)   bands (ev):

   -19.7715 -10.3753  -8.9909  -7.5003   3.7140   3.7408   4.4368   4.6008
     5.5628   6.0151   7.6426   7.7781   8.3841   9.2519  10.5083  11.4627

          k =-0.1667 0.2887 0.0000 (  4235 PWs)   bands (ev):

   -19.9277 -10.1347  -8.7814  -7.6799   3.5232   4.0112   4.2181   4.3778
     5.3455   5.7944   7.4312   7.6220   8.1692   9.1561  10.3192  11.2468

          k =-0.1600 0.2771 0.0000 (  4245 PWs)   bands (ev):

   -20.0781  -9.8917  -8.5727  -7.8536   3.3141   4.0075   4.1635   4.3084
     5.1362   5.5822   7.2268   7.4714   7.9634   9.0579  10.1322  11.0390

          k =-0.1533 0.2656 0.0000 (  4245 PWs)   bands (ev):

   -20.2228  -9.6467  -8.3654  -8.0212   3.1133   3.8052   3.9580   4.6050
     4.9350   5.3786   7.0299   7.3263   7.7670   8.9566   9.9491  10.8395

          k =-0.1467 0.2540 0.0000 (  4237 PWs)   bands (ev):

   -20.3616  -9.4002  -8.1826  -8.1601   2.9210   3.6113   3.7611   4.7421
     4.9002   5.1837   6.8406   7.1866   7.5802   8.8515   9.7710  10.6481

          k =-0.1400 0.2425 0.0000 (  4247 PWs)   bands (ev):

   -20.4945  -9.1526  -8.3376  -7.9573   2.7371   3.4258   3.5731   4.5575
     4.9973   5.1932   6.6592   7.0521   7.4035   8.7420   9.5987  10.4650

          k =-0.1333 0.2309 0.0000 (  4249 PWs)   bands (ev):

   -20.6214  -8.9043  -8.4860  -7.7577   2.5617   3.2487   3.3938   4.3813
     4.8196   5.4832   6.4858   6.9224   7.2373   8.6272   9.4329  10.2902

          k =-0.1267 0.2194 0.0000 (  4249 PWs)   bands (ev):

   -20.7424  -8.6560  -8.6278  -7.5617   2.3948   3.0802   3.2232   4.2135
     4.6506   5.7694   6.3204   6.7971   7.0823   8.5062   9.2739  10.1238

          k =-0.1200 0.2078 0.0000 (  4247 PWs)   bands (ev):

   -20.8574  -8.7629  -8.4084  -7.3702   2.2364   2.9201   3.0613   4.0542
     4.4902   6.0508   6.1632   6.6754   6.9392   8.3781   9.1222   9.9656

          k =-0.1133 0.1963 0.0000 (  4251 PWs)   bands (ev):

   -20.9663  -8.8912  -8.1621  -7.1836   2.0865   2.7687   2.9083   3.9034
     4.3385   6.0142   6.3264   6.5569   6.8085   8.2423   8.9779   9.8159

          k =-0.1067 0.1848 0.0000 (  4247 PWs)   bands (ev):

   -21.0691  -9.0125  -7.9179  -7.0028   1.9451   2.6257   2.7639   3.7611
     4.1954   5.8736   6.4413   6.5952   6.6904   8.0981   8.8413   9.6745

          k =-0.1000 0.1732 0.0000 (  4243 PWs)   bands (ev):

   -21.1658  -9.1268  -7.6769  -6.8283   1.8123   2.4914   2.6283   3.6273
     4.0611   5.7413   6.3291   6.5846   6.8561   7.9452   8.7125   9.5416

          k =-0.0933 0.1617 0.0000 (  4251 PWs)   bands (ev):

   -21.2564  -9.2341  -7.4399  -6.6609   1.6881   2.3657   2.5015   3.5021
     3.9354   5.6174   6.2208   6.4903   7.1079   7.7840   8.5917   9.4170

          k =-0.0867 0.1501 0.0000 (  4255 PWs)   bands (ev):

   -21.3408  -9.3342  -7.2083  -6.5013   1.5724   2.2486   2.3834   3.3854
     3.8183   5.5019   6.1174   6.4064   7.3495   7.6154   8.4789   9.3009

          k =-0.0800 0.1386 0.0000 (  4253 PWs)   bands (ev):

   -21.4190  -9.4271  -6.9831  -6.3502   1.4652   2.1402   2.2741   3.2774
     3.7100   5.3949   6.0198   6.3320   7.4407   7.5797   8.3742   9.1933

          k =-0.0733 0.1270 0.0000 (  4255 PWs)   bands (ev):

   -21.4911  -9.5127  -6.7660  -6.2081   1.3667   2.0404   2.1735   3.1780
     3.6103   5.2964   5.9287   6.2662   7.2623   7.7972   8.2777   9.0941

          k =-0.0667 0.1155 0.0000 (  4259 PWs)   bands (ev):

   -21.5569  -9.5911  -6.5584  -6.0759   1.2767   1.9492   2.0816   3.0871
     3.5193   5.2064   5.8446   6.2083   7.0829   8.0009   8.1895   9.0035

          k =-0.0600 0.1039 0.0000 (  4247 PWs)   bands (ev):

   -21.6165  -9.6621  -6.3621  -5.9541   1.1952   1.8667   1.9985   3.0049
     3.4370   5.1249   5.7678   6.1577   6.9057   8.1096   8.1895   8.9214

          k =-0.0533 0.0924 0.0000 (  4247 PWs)   bands (ev):

   -21.6699  -9.7257  -6.1789  -5.8433   1.1224   1.7929   1.9242   2.9314
     3.3633   5.0520   5.6987   6.1138   6.7341   8.0380   8.3619   8.8478

          k =-0.0467 0.0808 0.0000 (  4245 PWs)   bands (ev):

   -21.7170  -9.7820  -6.0106  -5.7441   1.0581   1.7278   1.8586   2.8664
     3.2983   4.9876   5.6375   6.0763   6.5717   7.9747   8.5169   8.7828

          k =-0.0400 0.0693 0.0000 (  4249 PWs)   bands (ev):

   -21.7579  -9.8307  -5.8594  -5.6570   1.0024   1.6713   1.8017   2.8102
     3.2420   4.9318   5.5842   6.0446   6.4222   7.9199   8.6536   8.7264

          k =-0.0333 0.0577 0.0000 (  4237 PWs)   bands (ev):

   -21.7924  -9.8721  -5.7272  -5.5825   0.9553   1.6235   1.7536   2.7625
     3.1944   4.8846   5.5390   6.0184   6.2889   7.8734   8.6786   8.7710

          k =-0.0267 0.0462 0.0000 (  4225 PWs)   bands (ev):

   -21.8207  -9.9059  -5.6158  -5.5210   0.9167   1.5844   1.7143   2.7236
     3.1554   4.8459   5.5020   5.9975   6.1751   7.8354   8.6394   8.8682

          k =-0.0200 0.0346 0.0000 (  4209 PWs)   bands (ev):

   -21.8427  -9.9322  -5.5272  -5.4727   0.8867   1.5540   1.6837   2.6933
     3.1251   4.8158   5.4731   5.9815   6.0834   7.8058   8.6090   8.9446

          k =-0.0133 0.0231 0.0000 (  4209 PWs)   bands (ev):

   -21.8585  -9.9510  -5.4626  -5.4381   0.8653   1.5322   1.6618   2.6716
     3.1034   4.7943   5.4525   5.9703   6.0162   7.7846   8.5872   8.9996

          k =-0.0067 0.0115 0.0000 (  4209 PWs)   bands (ev):

   -21.8679  -9.9623  -5.4234  -5.4173   0.8524   1.5192   1.6487   2.6586
     3.0904   4.7814   5.4401   5.9636   5.9752   7.7719   8.5741   9.0327

          k = 0.0000 0.0000 0.0000 (  4213 PWs)   bands (ev):

   -21.8711  -9.9661  -5.4103  -5.4103   0.8482   1.5149   1.6443   2.6543
     3.0861   4.7771   5.4360   5.9614   5.9614   7.7677   8.5698   9.0438

          k = 0.0000 0.0115 0.0000 (  4207 PWs)   bands (ev):

   -21.8687  -9.9633  -5.4202  -5.4155   0.8514   1.5181   1.6476   2.6575
     3.0893   4.7804   5.4390   5.9630   5.9717   7.7709   8.5730   9.0355

          k = 0.0000 0.0231 0.0000 (  4213 PWs)   bands (ev):

   -21.8616  -9.9548  -5.4497  -5.4311   0.8610   1.5279   1.6575   2.6673
     3.0991   4.7900   5.4483   5.9679   6.0028   7.7804   8.5828   9.0106

          k = 0.0000 0.0346 0.0000 (  4209 PWs)   bands (ev):

   -21.8498  -9.9407  -5.4986  -5.4569   0.8771   1.5442   1.6738   2.6835
     3.1153   4.8061   5.4638   5.9756   6.0542   7.7963   8.5992   8.9693

          k = 0.0000 0.0462 0.0000 (  4215 PWs)   bands (ev):

   -21.8333  -9.9209  -5.5663  -5.4925   0.8996   1.5670   1.6968   2.7062
     3.1381   4.8287   5.4855   5.9856   6.1258   7.8185   8.6220   8.9118

          k = 0.0000 0.0577 0.0000 (  4223 PWs)   bands (ev):

   -21.8121  -9.8956  -5.6524  -5.5375   0.9285   1.5963   1.7263   2.7355
     3.1673   4.8577   5.5132   5.9974   6.2170   7.8470   8.6514   8.8383

          k = 0.0000 0.0693 0.0000 (  4233 PWs)   bands (ev):

   -21.7861  -9.8646  -5.7560  -5.5914   0.9638   1.6322   1.7624   2.7712
     3.2030   4.8931   5.5471   6.0101   6.3273   7.8818   8.6872   8.7494

          k = 0.0000 0.0808 0.0000 (  4239 PWs)   bands (ev):

   -21.7555  -9.8279  -5.8763  -5.6536   1.0056   1.6745   1.8050   2.8134
     3.2453   4.9350   5.5869   6.0231   6.4560   7.9230   8.6455   8.7296

          k = 0.0000 0.0924 0.0000 (  4243 PWs)   bands (ev):

   -21.7201  -9.7857  -6.0123  -5.7234   1.0538   1.7234   1.8542   2.8621
     3.2940   4.9833   5.6324   6.0357   6.6024   7.9704   8.5271   8.7783

          k = 0.0000 0.1039 0.0000 (  4247 PWs)   bands (ev):

   -21.6801  -9.7379  -6.1630  -5.8001   1.1084   1.7788   1.9100   2.9173
     3.3492   5.0380   5.6834   6.0474   6.7656   8.0239   8.3949   8.8335

          k = 0.0000 0.1155 0.0000 (  4251 PWs)   bands (ev):

   -21.6354  -9.6846  -6.3275  -5.8829   1.1695   1.8407   1.9723   2.9790
     3.4109   5.0992   5.7390   6.0582   6.9450   8.0828   8.2503   8.8951

          k = 0.0000 0.1270 0.0000 (  4251 PWs)   bands (ev):

   -21.5859  -9.6257  -6.5045  -5.9711   1.2370   1.9091   2.0412   3.0471
     3.4791   5.1667   5.7978   6.0691   7.1398   8.0836   8.1574   8.9631

          k = 0.0000 0.1386 0.0000 (  4245 PWs)   bands (ev):

   -21.5318  -9.5613  -6.6932  -6.0641   1.3109   1.9839   2.1166   3.1217
     3.5539   5.2406   5.8564   6.0829   7.3489   7.9173   8.2257   9.0375

          k = 0.0000 0.1501 0.0000 (  4251 PWs)   bands (ev):

   -21.4731  -9.4913  -6.8925  -6.1610   1.3912   2.0653   2.1986   3.2028
     3.6351   5.3209   5.9078   6.1065   7.5717   7.7357   8.3042   9.1181

          k = 0.0000 0.1617 0.0000 (  4261 PWs)   bands (ev):

   -21.4096  -9.4160  -7.1014  -6.2612   1.4780   2.1532   2.2871   3.2903
     3.7227   5.4074   5.9413   6.1502   7.5431   7.8074   8.3892   9.2051

          k = 0.0000 0.1732 0.0000 (  4265 PWs)   bands (ev):

   -21.3416  -9.3352  -7.3189  -6.3641   1.5711   2.2475   2.3823   3.3842
     3.8169   5.5003   5.9534   6.2178   7.3405   8.0551   8.4807   9.2984

          k = 0.0000 0.1848 0.0000 (  4257 PWs)   bands (ev):

   -21.2689  -9.2490  -7.5442  -6.4689   1.6707   2.3483   2.4839   3.4846
     3.9175   5.5992   5.9500   6.3033   7.1286   8.3140   8.5783   9.3980

          k = 0.0000 0.1963 0.0000 (  4263 PWs)   bands (ev):

   -21.1915  -9.1575  -7.7763  -6.5752   1.7767   2.4555   2.5922   3.5913
     4.0246   5.7040   5.9368   6.4013   6.9086   8.5835   8.6823   9.5039

          k = 0.0000 0.2078 0.0000 (  4257 PWs)   bands (ev):

   -21.1096  -9.0607  -8.0146  -6.6823   1.8890   2.5692   2.7069   3.7044
     4.1381   5.8140   5.9170   6.5089   6.6818   8.7923   8.8627   9.6161

          k = 0.0000 0.2194 0.0000 (  4263 PWs)   bands (ev):

   -21.0231  -8.9586  -8.2582  -6.7898   2.0078   2.6892   2.8283   3.8238
     4.2581   5.8925   5.9267   6.4514   6.6246   8.9086   9.1510   9.7346

          k = 0.0000 0.2309 0.0000 (  4263 PWs)   bands (ev):

   -20.9320  -8.8514  -8.5064  -6.8972   2.1329   2.8156   2.9562   3.9494
     4.3844   5.8642   6.0216   6.2387   6.7477   9.0309   9.4477   9.8594

          k = 0.0000 0.2425 0.0000 (  4251 PWs)   bands (ev):

   -20.8363  -8.7586  -8.7390  -7.0040   2.2645   2.9483   3.0906   4.0809
     4.5171   5.8330   5.9162   6.2270   6.8779   9.1593   9.7521   9.9905

          k = 0.0000 0.2540 0.0000 (  4245 PWs)   bands (ev):

   -20.7360  -9.0142  -8.6216  -7.1099   2.4023   3.0873   3.2316   4.2181
     4.6559   5.6787   5.7997   6.3492   7.0150   9.2938  10.0634  10.1279

          k = 0.0000 0.2656 0.0000 (  4237 PWs)   bands (ev):

   -20.6313  -9.2725  -8.4992  -7.2145   2.5466   3.2322   3.3792   4.3598
     4.8008   5.4273   5.7648   6.4891   7.1588   9.4342  10.2715  10.3810

          k = 0.0000 0.2771 0.0000 (  4233 PWs)   bands (ev):

   -20.5221  -9.5331  -8.3719  -7.3174   2.6971   3.3828   3.5333   4.5027
     4.9515   5.1752   5.7293   6.6377   7.3093   9.5805  10.4214  10.7043

          k = 0.0000 0.2887 0.0000 (  4237 PWs)   bands (ev):

   -20.4084  -9.7955  -8.2399  -7.4184   2.8540   3.5383   3.6939   4.6249
     4.9471   5.1069   5.6944   6.7935   7.4664   9.7326  10.5775  11.0324

          k = 0.0000 0.3002 0.0000 (  4239 PWs)   bands (ev):

   -20.2902 -10.0592  -8.1032  -7.5171   3.0172   3.6964   3.8611   4.5657
     4.9071   5.2647   5.6629   6.9559   7.6299   9.8905  10.7399  11.3648

          k = 0.0000 0.3118 0.0000 (  4249 PWs)   bands (ev):

   -20.1676 -10.3238  -7.9620  -7.6134   3.1866   3.8469   4.0348   4.3452
     5.0460   5.4133   5.6469   7.1249   7.8000  10.0541  10.9085  11.7006

          k = 0.0000 0.3233 0.0000 (  4257 PWs)   bands (ev):

   -20.0407 -10.5890  -7.8164  -7.7069   3.3623   3.9059   4.1969   4.2149
     5.2151   5.4979   5.7014   7.3001   7.9765  10.2231  11.0833  12.0390

          k = 0.0000 0.3349 0.0000 (  4263 PWs)   bands (ev):

   -19.9094 -10.8542  -7.7974  -7.6666   3.5441   3.7185   4.2950   4.4016
     5.3955   5.4942   5.8512   7.4817   8.1595  10.3976  11.2643  12.3794

          k = 0.0000 0.3464 0.0000 (  4265 PWs)   bands (ev):

   -19.7738 -11.1192  -7.8848  -7.5128   3.4593   3.7321   4.4689   4.5945
     5.4664   5.5840   6.0323   7.6694   8.3489  10.5772  11.4513  12.7207

          k = 0.0000 0.3580 0.0000 (  4273 PWs)   bands (ev):

   -19.6339 -11.3837  -7.9688  -7.3552   3.1882   3.9260   4.6601   4.7937
     5.4342   5.7796   6.2257   7.8633   8.5446  10.7618  11.6445  13.0621

          k = 0.0000 0.3695 0.0000 (  4269 PWs)   bands (ev):

   -19.4898 -11.6474  -8.0494  -7.1941   2.9140   4.1258   4.8608   4.9982
     5.4024   5.9820   6.4278   8.0633   8.7467  10.9510  11.8436  13.4026

          k = 0.0000 0.3811 0.0000 (  4267 PWs)   bands (ev):

   -19.3415 -11.9099  -8.1263  -7.0299   2.6393   4.3310   5.0693   5.2031
     5.3777   6.1910   6.6372   8.2692   8.9551  11.1444  12.0487  13.4308

          k = 0.0000 0.3926 0.0000 (  4267 PWs)   bands (ev):

   -19.1891 -12.1710  -8.1995  -6.8628   2.3657   4.5408   5.2848   5.3151
     5.4549   6.4064   6.8535   8.4811   9.1698  11.3415  12.2595  13.3520

          k = 0.0000 0.4041 0.0000 (  4263 PWs)   bands (ev):

   -19.0327 -12.4304  -8.2687  -6.6933   2.0942   4.7531   5.3015   5.5070
     5.6690   6.6282   7.0766   8.6988   9.3908  11.5414  12.4754  13.2213

          k = 0.0000 0.4157 0.0000 (  4261 PWs)   bands (ev):

   -18.8725 -12.6878  -8.3339  -6.5220   1.8258   4.9593   5.2921   5.7358
     5.8993   6.8563   7.3063   8.9223   9.6180  11.7427  12.6939  13.0449

          k = 0.0000 0.4272 0.0000 (  4257 PWs)   bands (ev):

   -18.7083 -12.9430  -8.3951  -6.3494   1.5615   5.1135   5.3408   5.9710
     6.1376   7.0907   7.5425   9.1513   9.8514  11.9430  12.7923  12.9524

          k = 0.0000 0.4388 0.0000 (  4261 PWs)   bands (ev):

   -18.5406 -13.1956  -8.4520  -6.1763   1.3025   5.1506   5.5141   6.2124
     6.3829   7.3312   7.7852   9.3857  10.0909  12.1371  12.5526  13.1704

          k = 0.0000 0.4503 0.0000 (  4267 PWs)   bands (ev):

   -18.3693 -13.4455  -8.5047  -6.0037   1.0499   5.1415   5.7412   6.4602
     6.6349   7.5779   8.0343   9.6253  10.3364  12.2741  12.3119  13.3359

          k = 0.0000 0.4619 0.0000 (  4263 PWs)   bands (ev):

   -18.1948 -13.6921  -8.5530  -5.8328   0.8051   5.1241   5.9847   6.7141
     6.8936   7.8307   8.2898   9.8696  10.5879  11.9769  12.4250  13.1122

          k = 0.0000 0.4734 0.0000 (  4261 PWs)   bands (ev):

   -18.0173 -13.9351  -8.5968  -5.6648   0.5697   5.1053   6.2374   6.9741
     7.1589   8.0894   8.5517  10.1182  10.8448  11.6679  12.3714  13.0281

          k = 0.0000 0.4850 0.0000 (  4265 PWs)   bands (ev):

   -17.8373 -14.1739  -8.6362  -5.5016   0.3457   5.0872   6.4974   7.2401
     7.4308   8.3540   8.8198  10.3698  11.1041  11.3550  12.1459  12.6594

          k = 0.0000 0.4965 0.0000 (  4269 PWs)   bands (ev):

   -17.6555 -14.4079  -8.6711  -5.3453   0.1354   5.0706   6.7639   7.5120
     7.7092   8.6243   9.0941  10.6218  11.0230  11.3839  11.8577  12.2855

          k = 0.0000 0.5081 0.0000 (  4273 PWs)   bands (ev):

   -17.4729 -14.6358  -8.7014  -5.1984  -0.0585   5.0558   7.0366   7.7896
     7.9941   8.9001   9.3746  10.7023  10.8645  11.5609  11.6560  11.9179

          k = 0.0000 0.5196 0.0000 (  4271 PWs)   bands (ev):

   -17.2910 -14.8562  -8.7272  -5.0642  -0.2327   5.0431   7.3151   8.0728
     8.2855   9.1811   9.6607  10.3800  11.0179  11.3462  11.5554  11.9366

          k = 0.0000 0.5312 0.0000 (  4276 PWs)   bands (ev):

   -17.1128 -15.0659  -8.7482  -4.9462  -0.3837   5.0325   7.5991   8.3614
     8.5834   9.4665   9.9445  10.0672  10.8296  11.2000  11.4589  12.0219

          k = 0.0000 0.5427 0.0000 (  4282 PWs)   bands (ev):

   -16.9436 -15.2598  -8.7647  -4.8484  -0.5072   5.0242   7.8884   8.6548
     8.8877   9.7345   9.7538  10.2567  10.5321  10.8507  11.5414  11.8665

          k = 0.0000 0.5543 0.0000 (  4280 PWs)   bands (ev):

   -16.7935 -15.4274  -8.7764  -4.7748  -0.5992   5.0183   8.1823   8.9524
     9.1972   9.4211  10.0173  10.2513  10.5064  10.5618  11.3017  11.8373

          k = 0.0000 0.5658 0.0000 (  4270 PWs)   bands (ev):

   -16.6823 -15.5491  -8.7835  -4.7289  -0.6561   5.0147   8.4786   9.1087
     9.2509   9.5175   9.8808  10.1709  10.3730  10.8710  11.0068  11.5102

          k = 0.0000 0.5774 0.0000 (  4268 PWs)   bands (ev):

   -16.6395 -15.5955  -8.7858  -4.7133  -0.6753   5.0135   8.7207   8.8627
     9.4884   9.6464   9.8355   9.8461  10.5878  10.7832  11.1718  11.2037

          k =-0.0067 0.5774 0.0000 (  4274 PWs)   bands (ev):

   -16.6388 -15.5948  -8.7894  -4.7124  -0.6756   5.0183   8.7216   8.8637
     9.4886   9.6475   9.8366   9.8472  10.5882  10.7843  11.1728  11.2048

          k =-0.0133 0.5774 0.0000 (  4266 PWs)   bands (ev):

   -16.6368 -15.5928  -8.8000  -4.7095  -0.6762   5.0327   8.7244   8.8667
     9.4895   9.6508   9.8398   9.8504  10.5895  10.7876  11.1758  11.2079

          k =-0.0200 0.5774 0.0000 (  4268 PWs)   bands (ev):

   -16.6334 -15.5895  -8.8178  -4.7047  -0.6774   5.0567   8.7291   8.8716
     9.4909   9.6562   9.8452   9.8559  10.5915  10.7930  11.1808  11.2131

          k =-0.0267 0.5774 0.0000 (  4264 PWs)   bands (ev):

   -16.6287 -15.5848  -8.8425  -4.6980  -0.6790   5.0901   8.7356   8.8786
     9.4927   9.6638   9.8528   9.8635  10.5944  10.8006  11.1879  11.2204

          k =-0.0333 0.5774 0.0000 (  4276 PWs)   bands (ev):

   -16.6226 -15.5788  -8.8741  -4.6893  -0.6811   5.1329   8.7440   8.8875
     9.4950   9.6736   9.8625   9.8732  10.5980  10.8104  11.1970  11.2298

          k =-0.0400 0.5774 0.0000 (  4274 PWs)   bands (ev):

   -16.6152 -15.5715  -8.9124  -4.6788  -0.6837   5.1849   8.7542   8.8984
     9.4975   9.6856   9.8744   9.8852  10.6024  10.8224  11.2080  11.2413

          k =-0.0467 0.5774 0.0000 (  4276 PWs)   bands (ev):

   -16.6064 -15.5628  -8.9572  -4.6663  -0.6868   5.2458   8.7663   8.9113
     9.5001   9.6997   9.8885   9.8993  10.6075  10.8365  11.2211  11.2548

          k =-0.0533 0.5774 0.0000 (  4280 PWs)   bands (ev):

   -16.5963 -15.5529  -9.0084  -4.6520  -0.6905   5.3155   8.7803   8.9262
     9.5026   9.7160   9.9047   9.9155  10.6133  10.8528  11.2362  11.2705

          k =-0.0600 0.5774 0.0000 (  4280 PWs)   bands (ev):

   -16.5849 -15.5416  -9.0657  -4.6357  -0.6949   5.3938   8.7961   8.9430
     9.5049   9.7345   9.9230   9.9340  10.6198  10.8713  11.2532  11.2882

          k =-0.0667 0.5774 0.0000 (  4276 PWs)   bands (ev):

   -16.5721 -15.5291  -9.1289  -4.6175  -0.6999   5.4804   8.8137   8.9618
     9.5067   9.7552   9.9436   9.9546  10.6269  10.8920  11.2722  11.3079

          k =-0.0733 0.5774 0.0000 (  4274 PWs)   bands (ev):

   -16.5579 -15.5152  -9.1978  -4.5974  -0.7057   5.5750   8.8331   8.9825
     9.5076   9.7780   9.9662   9.9774  10.6348  10.9148  11.2933  11.3298

          k =-0.0800 0.5774 0.0000 (  4270 PWs)   bands (ev):

   -16.5424 -15.5001  -9.2720  -4.5754  -0.7122   5.6773   8.8543   9.0052
     9.5073   9.8030   9.9911  10.0023  10.6433  10.9398  11.3162  11.3537

          k =-0.0867 0.5774 0.0000 (  4270 PWs)   bands (ev):

   -16.5255 -15.4838  -9.3514  -4.5514  -0.7196   5.7870   8.8773   9.0298
     9.5056   9.8302  10.0181  10.0294  10.6526  10.9670  11.3412  11.3797

          k =-0.0933 0.5774 0.0000 (  4280 PWs)   bands (ev):

   -16.5073 -15.4662  -9.4355  -4.5256  -0.7279   5.9037   8.9021   9.0564
     9.5019   9.8595  10.0472  10.0587  10.6628  10.9963  11.3681  11.4077

          k =-0.1000 0.5774 0.0000 (  4284 PWs)   bands (ev):

   -16.4878 -15.4474  -9.5243  -4.4979  -0.7371   6.0273   8.9287   9.0849
     9.4958   9.8910  10.0785  10.0901  10.6739  11.0279  11.3969  11.4378

          k =-0.1067 0.5774 0.0000 (  4274 PWs)   bands (ev):

   -16.4669 -15.4273  -9.6172  -4.4682  -0.7475   6.1573   8.9570   9.1153
     9.4870   9.9247  10.1120  10.1237  10.6862  11.0616  11.4276  11.4699

          k =-0.1133 0.5774 0.0000 (  4266 PWs)   bands (ev):

   -16.4447 -15.4061  -9.7141  -4.4367  -0.7589   6.2933   8.9870   9.1476
     9.4749   9.9606  10.1476  10.1595  10.6998  11.0974  11.4602  11.5041

          k =-0.1200 0.5774 0.0000 (  4256 PWs)   bands (ev):

   -16.4211 -15.3838  -9.8147  -4.4032  -0.7716   6.4351   9.0187   9.1818
     9.4591   9.9986  10.1853  10.1974  10.7150  11.1355  11.4947  11.5403

          k =-0.1267 0.5774 0.0000 (  4256 PWs)   bands (ev):

   -16.3961 -15.3603  -9.9187  -4.3679  -0.7857   6.5823   9.0521   9.2179
     9.4393  10.0389  10.2252  10.2375  10.7321  11.1757  11.5310  11.5785

          k =-0.1333 0.5774 0.0000 (  4250 PWs)   bands (ev):

   -16.3698 -15.3357 -10.0257  -4.3307  -0.8011   6.7345   9.0872   9.2558
     9.4153  10.0812  10.2673  10.2798  10.7513  11.2181  11.5692  11.6187

          k =-0.1400 0.5774 0.0000 (  4252 PWs)   bands (ev):

   -16.3422 -15.3101 -10.1356  -4.2916  -0.8181   6.8913   9.1238   9.2956
     9.3868  10.1258  10.3114  10.3242  10.7729  11.2627  11.6091  11.6609

          k =-0.1467 0.5774 0.0000 (  4252 PWs)   bands (ev):

   -16.3133 -15.2835 -10.2480  -4.2506  -0.8367   7.0525   9.1621   9.3373
     9.3537  10.1725  10.3577  10.3707  10.7972  11.3094  11.6509  11.7051

          k =-0.1533 0.5774 0.0000 (  4254 PWs)   bands (ev):

   -16.2830 -15.2559 -10.3627  -4.2077  -0.8570   7.2175   9.2018   9.3163
     9.3807  10.2214  10.4062  10.4194  10.8245  11.3583  11.6943  11.7513

          k =-0.1600 0.5774 0.0000 (  4256 PWs)   bands (ev):

   -16.2513 -15.2274 -10.4793  -4.1629  -0.8791   7.3862   9.2431   9.2747
     9.4260  10.2725  10.4568  10.4703  10.8548  11.4094  11.7394  11.7994

          k =-0.1667 0.5774 0.0000 (  4252 PWs)   bands (ev):

   -16.2183 -15.1981 -10.5977  -4.1163  -0.9032   7.5579   9.2292   9.2859
     9.4731  10.3257  10.5095  10.5233  10.8883  11.4626  11.7862  11.8495

          k =-0.1733 0.5774 0.0000 (  4246 PWs)   bands (ev):

   -16.1840 -15.1680 -10.7175  -4.0677  -0.9293   7.7323   9.1803   9.3300
     9.5219  10.3811  10.5643  10.5785  10.9250  11.5180  11.8345  11.9015

          k =-0.1800 0.5774 0.0000 (  4244 PWs)   bands (ev):

   -16.1483 -15.1373 -10.8385  -4.0173  -0.9575   7.9091   9.1285   9.3755
     9.5726  10.4387  10.6213  10.6358  10.9651  11.5756  11.8843  11.9553

          k =-0.1867 0.5774 0.0000 (  4248 PWs)   bands (ev):

   -16.1113 -15.1059 -10.9604  -3.9651  -0.9880   8.0876   9.0744   9.4223
     9.6250  10.4984  10.6803  10.6953  11.0086  11.6354  11.9356  12.0111

          k =-0.1933 0.5774 0.0000 (  4246 PWs)   bands (ev):

   -16.0730 -15.0741 -11.0829  -3.9110  -1.0208   8.2673   9.0186   9.4703
     9.6793  10.5603  10.7415  10.7569  11.0553  11.6973  11.9882  12.0688

          k =-0.2000 0.5774 0.0000 (  4244 PWs)   bands (ev):

   -16.0333 -15.0420 -11.2056  -3.8550  -1.0561   8.4478   8.9617   9.5194
     9.7354  10.6244  10.8047  10.8206  11.1052  11.7614  12.0421  12.1282

          k =-0.2067 0.5774 0.0000 (  4238 PWs)   bands (ev):

   -15.9923 -15.0097 -11.3284  -3.7972  -1.0940   8.6283   8.9043   9.5696
     9.7934  10.6906  10.8701  10.8865  11.1583  11.8276  12.0971  12.1894

          k =-0.2133 0.5774 0.0000 (  4236 PWs)   bands (ev):

   -15.9499 -14.9775 -11.4508  -3.7375  -1.1344   8.8080   8.8470   9.6208
     9.8534  10.7590  10.9375  10.9545  11.2144  11.8960  12.1532  12.2524

          k =-0.2200 0.5774 0.0000 (  4240 PWs)   bands (ev):

   -15.9062 -14.9455 -11.5725  -3.6760  -1.1776   8.7903   8.9862   9.6727
     9.9156  10.8295  11.0070  11.0247  11.2736  11.9666  12.2101  12.3172

          k =-0.2267 0.5774 0.0000 (  4246 PWs)   bands (ev):

   -15.8612 -14.9140 -11.6931  -3.6127  -1.2235   8.7348   9.1616   9.7254
     9.9804  10.9022  11.0785  11.0970  11.3357  12.0394  12.2677  12.3835

          k =-0.2333 0.5774 0.0000 (  4250 PWs)   bands (ev):

   -15.8149 -14.8834 -11.8122  -3.5475  -1.2723   8.6810   9.3329   9.7788
    10.0481  10.9771  11.1521  11.1714  11.4005  12.1143  12.3259  12.4515

          k =-0.2400 0.5774 0.0000 (  4244 PWs)   bands (ev):

   -15.7672 -14.8539 -11.9292  -3.4805  -1.3240   8.6292   9.4983   9.8325
    10.1197  11.0542  11.2277  11.2480  11.4681  12.1913  12.3844  12.5210

          k =-0.2467 0.5774 0.0000 (  4242 PWs)   bands (ev):

   -15.7182 -14.8262 -12.0437  -3.4116  -1.3786   8.5799   9.6555   9.8865
    10.1960  11.1333  11.3054  11.3267  11.5383  12.2706  12.4430  12.5918

          k =-0.2533 0.5774 0.0000 (  4249 PWs)   bands (ev):

   -15.6678 -14.8006 -12.1549  -3.3410  -1.4362   8.5334   9.8018   9.9407
    10.2787  11.2147  11.3849  11.4075  11.6110  12.3520  12.5015  12.6640

          k =-0.2600 0.5774 0.0000 (  4241 PWs)   bands (ev):

   -15.6162 -14.7778 -12.2623  -3.2686  -1.4968   8.4900   9.9342   9.9947
    10.3689  11.2982  11.4665  11.4904  11.6860  12.4355  12.5597  12.7372

          k =-0.2667 0.5774 0.0000 (  4241 PWs)   bands (ev):

   -15.5632 -14.7587 -12.3648  -3.1943  -1.5603   8.4500  10.0485  10.0509
    10.4667  11.3839  11.5500  11.5753  11.7633  12.5212  12.6173  12.8111

          k =-0.2733 0.5774 0.0000 (  4237 PWs)   bands (ev):

   -15.5089 -14.7439 -12.4617  -3.1183  -1.6269   8.4135  10.1016  10.1516
    10.5703  11.4717  11.6353  11.6623  11.8426  12.6091  12.6741  12.8852

          k =-0.2800 0.5774 0.0000 (  4241 PWs)   bands (ev):

   -15.4532 -14.7345 -12.5518  -3.0405  -1.6965   8.3807  10.1540  10.2381
    10.6753  11.5616  11.7225  11.7513  11.9238  12.6991  12.7299  12.9587

          k =-0.2867 0.5774 0.0000 (  4237 PWs)   bands (ev):

   -15.3963 -14.7315 -12.6341  -2.9609  -1.7690   8.3517  10.2053  10.3126
    10.7766  11.6538  11.8115  11.8422  12.0065  12.7847  12.7913  13.0299

          k =-0.2933 0.5774 0.0000 (  4243 PWs)   bands (ev):

   -15.3380 -14.7360 -12.7074  -2.8795  -1.8445   8.3267  10.2552  10.3769
    10.8693  11.7480  11.9022  11.9348  12.0902  12.8385  12.8856  13.0954

          k =-0.3000 0.5774 0.0000 (  4239 PWs)   bands (ev):

   -15.2785 -14.7490 -12.7706  -2.7964  -1.9228   8.3057  10.3034  10.4315
    10.9490  11.8444  11.9945  12.0289  12.1740  12.8914  12.9821  13.1462

          k =-0.3067 0.5774 0.0000 (  4245 PWs)   bands (ev):

   -15.2176 -14.7713 -12.8229  -2.7115  -2.0039   8.2887  10.3496  10.4761
    11.0127  11.9430  12.0884  12.1245  12.2564  12.9437  13.0808  13.1499

          k =-0.3133 0.5774 0.0000 (  4247 PWs)   bands (ev):

   -15.1554 -14.8036 -12.8636  -2.6249  -2.0877   8.2756  10.3934  10.5091
    11.0588  12.0437  12.1838  12.2211  12.3338  12.9958  13.0464  13.0727

          k =-0.3200 0.5774 0.0000 (  4247 PWs)   bands (ev):

   -15.0918 -14.8461 -12.8924  -2.5365  -2.1741   8.2664  10.4345  10.5277
    11.0874  12.1465  12.2805  12.3185  12.3971  12.8803  12.9456  13.0484

          k =-0.3267 0.5774 0.0000 (  4247 PWs)   bands (ev):

   -15.0270 -14.8987 -12.9092  -2.4464  -2.2632   8.2610  10.4726  10.5285
    11.1013  12.2515  12.3784  12.4155  12.4203  12.6954  12.8349  13.1020

          k =-0.3333 0.5774 0.0000 (  4251 PWs)   bands (ev):

   -14.9609 -14.9609 -12.9147  -2.3546  -2.3546   8.2592  10.5074  10.5074
    11.1048  12.3586  12.3586  12.4772  12.4772  12.5372  12.7950  13.1576

     Writing all to output data dir ../SCF/out/graphene.save/

     init_run     :      2.51s CPU      1.85s WALL (       1 calls)
     electrons    :   2127.02s CPU   1267.34s WALL (       1 calls)

     Called by init_run:
     wfcinit      :      0.00s CPU      0.00s WALL (       1 calls)
     wfcinit:atom :      0.41s CPU      0.27s WALL (     151 calls)
     wfcinit:wfcr :     37.63s CPU     22.23s WALL (     151 calls)
     potinit      :      0.98s CPU      0.64s WALL (       1 calls)
     hinit0       :      1.05s CPU      0.80s WALL (       1 calls)

     Called by electrons:
     c_bands      :   2126.99s CPU   1267.30s WALL (       1 calls)
     v_of_rho     :      0.35s CPU      0.20s WALL (       1 calls)
     v_h          :      0.02s CPU      0.01s WALL (       1 calls)
     v_xc         :      0.33s CPU      0.18s WALL (       1 calls)
     newd         :      0.23s CPU      0.15s WALL (       1 calls)
     PAW_pot      :      0.16s CPU      0.09s WALL (       1 calls)

     Called by c_bands:
     init_us_2    :      0.36s CPU      0.27s WALL (     151 calls)
     init_us_2:cp :      0.35s CPU      0.27s WALL (     151 calls)
     cegterg      :   2084.75s CPU   1242.06s WALL (     505 calls)

     Called by sum_band:

     Called by *egterg:
     cdiaghg      :     47.71s CPU     30.63s WALL (    8924 calls)
     cegterg:over :    147.54s CPU     86.85s WALL (    8773 calls)
     cegterg:upda :     89.61s CPU     59.64s WALL (    8773 calls)
     cegterg:last :     56.23s CPU     33.20s WALL (    5843 calls)
     h_psi        :   1478.32s CPU    863.60s WALL (    9429 calls)
     s_psi        :     40.17s CPU     27.13s WALL (    9429 calls)
     g_psi        :     51.31s CPU     34.29s WALL (    8773 calls)

     Called by h_psi:
     h_psi:calbec :    101.80s CPU     62.38s WALL (    9429 calls)
     vloc_psi     :   1313.67s CPU    760.01s WALL (    9429 calls)
     add_vuspsi   :     27.59s CPU     17.26s WALL (    9429 calls)

     General routines
     calbec       :    101.61s CPU     62.28s WALL (    9429 calls)
     fft          :      0.42s CPU      0.25s WALL (      13 calls)
     ffts         :      0.42s CPU      0.32s WALL (       1 calls)
     fftw         :   1137.92s CPU    653.72s WALL (  170488 calls)
     interpolate  :      0.43s CPU      0.33s WALL (       1 calls)
     davcio       :      0.32s CPU      0.28s WALL (     302 calls)

     Parallel routines

     PAW routines
     PAW_pot      :      0.16s CPU      0.09s WALL (       1 calls)

     PWSCF        :  35m33.74s CPU  21m13.27s WALL


   This run was terminated on:  14: 5:19  17Nov2023            

=------------------------------------------------------------------------------=
   JOB DONE.
=------------------------------------------------------------------------------=
