
     Program PROJWFC v.7.2 starts on 21Nov2023 at 17:44:39 

     This program is part of the open-source Quantum ESPRESSO suite
     for quantum simulation of materials; please cite
         "P. Giannozzi et al., J. Phys.:Condens. Matter 21 395502 (2009);
         "P. Giannozzi et al., J. Phys.:Condens. Matter 29 465901 (2017);
         "P. Giannozzi et al., J. Chem. Phys. 152 154105 (2020);
          URL http://www.quantum-espresso.org", 
     in publications or presentations arising from this work. More details at
     http://www.quantum-espresso.org/quote

     Parallel version (MPI & OpenMP), running on       2 processor cores
     Number of MPI processes:                 2
     Threads/MPI process:                     1

     MPI processes distributed on     1 nodes
     R & G space division:  proc/nbgrp/npool/nimage =       2
     507327 MiB available memory on the printing compute node when the environment starts
 

     Reading xml data from directory:

     ../SCF/out/graphene.save/
     file C.pbe-n-kjpaw_psl.1.0.0.UPF: wavefunction(s)  2S 2P renormalized

     IMPORTANT: XC functional enforced from input :
     Exchange-correlation= PBE
                           (   1   4   3   4   0   0   0)
     Any further DFT definition will be discarded
     Please, verify this is what you really want

 
     Parallelization info
     --------------------
     sticks:   dense  smooth     PW     G-vecs:    dense   smooth      PW
     Min         237     237     75                34341    34341    5761
     Max         238     238     76                34364    34364    5776
     Sum         475     475    151                68705    68705   11537
 
     Using Slab Decomposition
 

     Check: negative core charge=   -0.000004

     negative rho (up, down):  1.815E-04 0.000E+00

     Gaussian broadening (read from input): ngauss,degauss=   0    0.010000


     Calling projwave .... 
     Subspace diagonalization in iterative solution of the eigenvalue problem:
     a serial algorithm will be used

 
  Problem Sizes 
  natomwfc =             8
  nbnd     =            16
  nkstot   =           817
  npwx     =          4372
  nkb      =            16
 

     Atomic states used for projection
     (read from pseudopotential files):

     state #   1: atom   1 (C  ), wfc  1 (l=0 m= 1)
     state #   2: atom   1 (C  ), wfc  2 (l=1 m= 1)
     state #   3: atom   1 (C  ), wfc  2 (l=1 m= 2)
     state #   4: atom   1 (C  ), wfc  2 (l=1 m= 3)
     state #   5: atom   2 (C  ), wfc  1 (l=0 m= 1)
     state #   6: atom   2 (C  ), wfc  2 (l=1 m= 1)
     state #   7: atom   2 (C  ), wfc  2 (l=1 m= 2)
     state #   8: atom   2 (C  ), wfc  2 (l=1 m= 3)

 k =   0.0000000000  0.0000000000  0.0000000000
==== e(   1) =   -21.87062 eV ==== 
     psi = 0.492*[#   1]+0.492*[#   5]
    |psi|^2 = 0.984
==== e(   2) =    -9.96725 eV ==== 
     psi = 0.473*[#   2]+0.473*[#   6]
    |psi|^2 = 0.946
==== e(   3) =    -5.41080 eV ==== 
     psi = 0.249*[#   3]+0.249*[#   4]+0.249*[#   7]+0.249*[#   8]
    |psi|^2 = 0.997
==== e(   4) =    -5.41080 eV ==== 
     psi = 0.249*[#   3]+0.249*[#   4]+0.249*[#   7]+0.249*[#   8]
    |psi|^2 = 0.997
==== e(   5) =     0.81436 eV ==== 
     psi = 0.003*[#   1]+0.003*[#   5]
    |psi|^2 = 0.006
==== e(   6) =     1.44127 eV ==== 
     psi = 0.008*[#   2]+0.008*[#   6]
    |psi|^2 = 0.015
==== e(   7) =     1.54703 eV ==== 
 
    |psi|^2 = 0.001
==== e(   8) =     2.58115 eV ==== 
     psi = 0.008*[#   2]+0.008*[#   6]
    |psi|^2 = 0.015
==== e(   9) =     2.99400 eV ==== 
 
    |psi|^2 = 0.002
==== e(  10) =     4.69570 eV ==== 
     psi = 0.005*[#   2]+0.005*[#   6]
    |psi|^2 = 0.011
==== e(  11) =     5.34937 eV ==== 
 
    |psi|^2 = 0.002
==== e(  12) =     5.96020 eV ==== 
     psi = 0.238*[#   3]+0.238*[#   4]+0.238*[#   7]+0.238*[#   8]
    |psi|^2 = 0.951
==== e(  13) =     5.96020 eV ==== 
     psi = 0.238*[#   3]+0.238*[#   4]+0.238*[#   7]+0.238*[#   8]
    |psi|^2 = 0.951
==== e(  14) =     7.68314 eV ==== 
     psi = 0.003*[#   2]+0.003*[#   6]
    |psi|^2 = 0.006
==== e(  15) =     8.49500 eV ==== 
 
    |psi|^2 = 0.001
==== e(  16) =     9.04447 eV ==== 
     psi = 0.498*[#   2]+0.498*[#   6]
    |psi|^2 = 0.995

 k =   0.0000000000  0.0120281306  0.0000000000
==== e(   1) =   -21.86806 eV ==== 
     psi = 0.492*[#   1]+0.492*[#   5]
    |psi|^2 = 0.984
==== e(   2) =    -9.96419 eV ==== 
     psi = 0.473*[#   2]+0.473*[#   6]
    |psi|^2 = 0.946
==== e(   3) =    -5.42150 eV ==== 
     psi = 0.249*[#   3]+0.249*[#   4]+0.249*[#   7]+0.249*[#   8]
    |psi|^2 = 0.997
==== e(   4) =    -5.41646 eV ==== 
     psi = 0.249*[#   3]+0.249*[#   4]+0.249*[#   7]+0.249*[#   8]
    |psi|^2 = 0.997
==== e(   5) =     0.81785 eV ==== 
     psi = 0.003*[#   1]+0.003*[#   5]
    |psi|^2 = 0.006
==== e(   6) =     1.44481 eV ==== 
     psi = 0.008*[#   2]+0.008*[#   6]
    |psi|^2 = 0.015
==== e(   7) =     1.55059 eV ==== 
 
    |psi|^2 = 0.001
==== e(   8) =     2.58468 eV ==== 
     psi = 0.008*[#   2]+0.008*[#   6]
    |psi|^2 = 0.015
==== e(   9) =     2.99752 eV ==== 
 
    |psi|^2 = 0.002
==== e(  10) =     4.69920 eV ==== 
     psi = 0.005*[#   2]+0.005*[#   6]
    |psi|^2 = 0.011
==== e(  11) =     5.35275 eV ==== 
 
    |psi|^2 = 0.002
==== e(  12) =     5.96196 eV ==== 
     psi = 0.237*[#   3]+0.237*[#   4]+0.237*[#   7]+0.237*[#   8]
    |psi|^2 = 0.950
==== e(  13) =     5.97145 eV ==== 
     psi = 0.238*[#   3]+0.238*[#   4]+0.238*[#   7]+0.238*[#   8]
    |psi|^2 = 0.950
==== e(  14) =     7.68659 eV ==== 
     psi = 0.003*[#   2]+0.003*[#   6]
    |psi|^2 = 0.006
==== e(  15) =     8.49855 eV ==== 
 
    |psi|^2 = 0.002
==== e(  16) =     9.03546 eV ==== 
     psi = 0.498*[#   2]+0.498*[#   6]
    |psi|^2 = 0.995

 k =   0.0000000000  0.0240562612  0.0000000000
==== e(   1) =   -21.86038 eV ==== 
     psi = 0.490*[#   1]+0.490*[#   5]
    |psi|^2 = 0.984
==== e(   2) =    -9.95500 eV ==== 
     psi = 0.473*[#   2]+0.473*[#   6]
    |psi|^2 = 0.946
==== e(   3) =    -5.45352 eV ==== 
     psi = 0.249*[#   3]+0.249*[#   4]+0.249*[#   7]+0.249*[#   8]+0.001*[#   1]
          +0.001*[#   5]
    |psi|^2 = 0.997
==== e(   4) =    -5.43338 eV ==== 
     psi = 0.249*[#   3]+0.249*[#   4]+0.249*[#   7]+0.249*[#   8]
    |psi|^2 = 0.997
==== e(   5) =     0.82832 eV ==== 
     psi = 0.003*[#   1]+0.003*[#   5]
    |psi|^2 = 0.007
==== e(   6) =     1.45543 eV ==== 
     psi = 0.008*[#   2]+0.008*[#   6]
    |psi|^2 = 0.015
==== e(   7) =     1.56126 eV ==== 
 
    |psi|^2 = 0.001
==== e(   8) =     2.59525 eV ==== 
     psi = 0.007*[#   2]+0.007*[#   6]
    |psi|^2 = 0.015
==== e(   9) =     3.00809 eV ==== 
 
    |psi|^2 = 0.002
==== e(  10) =     4.70969 eV ==== 
     psi = 0.005*[#   2]+0.005*[#   6]
    |psi|^2 = 0.011
==== e(  11) =     5.36290 eV ==== 
     psi = 0.001*[#   1]+0.001*[#   5]
    |psi|^2 = 0.002
==== e(  12) =     5.96713 eV ==== 
     psi = 0.236*[#   3]+0.236*[#   4]+0.236*[#   7]+0.236*[#   8]+0.002*[#   1]
          +0.002*[#   5]
    |psi|^2 = 0.948
==== e(  13) =     6.00510 eV ==== 
     psi = 0.238*[#   3]+0.238*[#   4]+0.238*[#   7]+0.238*[#   8]
    |psi|^2 = 0.950
==== e(  14) =     7.69692 eV ==== 
     psi = 0.003*[#   2]+0.003*[#   6]
    |psi|^2 = 0.006
==== e(  15) =     8.50919 eV ==== 
 
    |psi|^2 = 0.002
==== e(  16) =     9.00846 eV ==== 
     psi = 0.497*[#   2]+0.497*[#   6]
    |psi|^2 = 0.995

 k =   0.0000000000  0.0360843918  0.0000000000
==== e(   1) =   -21.84758 eV ==== 
     psi = 0.488*[#   1]+0.488*[#   5]+0.002*[#   3]+0.002*[#   4]+0.002*[#   7]
          +0.002*[#   8]
    |psi|^2 = 0.984
==== e(   2) =    -9.93968 eV ==== 
     psi = 0.473*[#   2]+0.473*[#   6]
    |psi|^2 = 0.947
==== e(   3) =    -5.50650 eV ==== 
     psi = 0.248*[#   3]+0.248*[#   4]+0.248*[#   7]+0.248*[#   8]+0.003*[#   1]
          +0.003*[#   5]
    |psi|^2 = 0.997
==== e(   4) =    -5.46131 eV ==== 
     psi = 0.249*[#   3]+0.249*[#   4]+0.249*[#   7]+0.249*[#   8]
    |psi|^2 = 0.997
==== e(   5) =     0.84578 eV ==== 
     psi = 0.003*[#   1]+0.003*[#   5]
    |psi|^2 = 0.008
==== e(   6) =     1.47313 eV ==== 
     psi = 0.008*[#   2]+0.008*[#   6]
    |psi|^2 = 0.015
==== e(   7) =     1.57904 eV ==== 
 
    |psi|^2 = 0.001
==== e(   8) =     2.61287 eV ==== 
     psi = 0.007*[#   2]+0.007*[#   6]
    |psi|^2 = 0.015
==== e(   9) =     3.02571 eV ==== 
 
    |psi|^2 = 0.002
==== e(  10) =     4.72717 eV ==== 
     psi = 0.005*[#   2]+0.005*[#   6]
    |psi|^2 = 0.011
==== e(  11) =     5.37982 eV ==== 
     psi = 0.001*[#   1]+0.001*[#   5]
    |psi|^2 = 0.003
==== e(  12) =     5.97531 eV ==== 
     psi = 0.234*[#   3]+0.234*[#   4]+0.234*[#   7]+0.234*[#   8]+0.005*[#   1]
          +0.005*[#   5]
    |psi|^2 = 0.946
==== e(  13) =     6.06091 eV ==== 
     psi = 0.237*[#   3]+0.237*[#   4]+0.237*[#   7]+0.237*[#   8]
    |psi|^2 = 0.950
==== e(  14) =     7.71413 eV ==== 
     psi = 0.003*[#   2]+0.003*[#   6]
    |psi|^2 = 0.006
==== e(  15) =     8.52692 eV ==== 
 
    |psi|^2 = 0.002
==== e(  16) =     8.96364 eV ==== 
     psi = 0.497*[#   2]+0.497*[#   6]
    |psi|^2 = 0.994

 k =   0.0000000000  0.0481125224  0.0000000000
==== e(   1) =   -21.82966 eV ==== 
     psi = 0.484*[#   1]+0.484*[#   5]+0.004*[#   3]+0.004*[#   4]+0.004*[#   7]
          +0.004*[#   8]
    |psi|^2 = 0.984
==== e(   2) =    -9.91825 eV ==== 
     psi = 0.474*[#   2]+0.474*[#   6]
    |psi|^2 = 0.947
==== e(   3) =    -5.57991 eV ==== 
     psi = 0.247*[#   3]+0.247*[#   4]+0.247*[#   7]+0.247*[#   8]+0.004*[#   1]
          +0.004*[#   5]
    |psi|^2 = 0.997
==== e(   4) =    -5.49987 eV ==== 
     psi = 0.249*[#   3]+0.249*[#   4]+0.249*[#   7]+0.249*[#   8]
    |psi|^2 = 0.997
==== e(   5) =     0.87022 eV ==== 
     psi = 0.002*[#   1]+0.002*[#   5]+0.001*[#   3]+0.001*[#   4]+0.001*[#   7]
          +0.001*[#   8]
    |psi|^2 = 0.010
==== e(   6) =     1.49791 eV ==== 
     psi = 0.008*[#   2]+0.008*[#   6]
    |psi|^2 = 0.015
==== e(   7) =     1.60393 eV ==== 
 
    |psi|^2 = 0.002
==== e(   8) =     2.63754 eV ==== 
     psi = 0.007*[#   2]+0.007*[#   6]
    |psi|^2 = 0.015
==== e(   9) =     3.05037 eV ==== 
 
    |psi|^2 = 0.002
==== e(  10) =     4.75165 eV ==== 
     psi = 0.005*[#   2]+0.005*[#   6]
    |psi|^2 = 0.010
==== e(  11) =     5.40348 eV ==== 
     psi = 0.001*[#   1]+0.001*[#   5]
    |psi|^2 = 0.003
==== e(  12) =     5.98591 eV ==== 
     psi = 0.231*[#   3]+0.231*[#   4]+0.231*[#   7]+0.231*[#   8]+0.008*[#   1]
          +0.008*[#   5]
    |psi|^2 = 0.942
==== e(  13) =     6.13848 eV ==== 
     psi = 0.237*[#   3]+0.237*[#   4]+0.237*[#   7]+0.237*[#   8]
    |psi|^2 = 0.950
==== e(  14) =     7.73822 eV ==== 
     psi = 0.003*[#   2]+0.003*[#   6]
    |psi|^2 = 0.006
==== e(  15) =     8.55173 eV ==== 
 
    |psi|^2 = 0.002
==== e(  16) =     8.90128 eV ==== 
     psi = 0.497*[#   2]+0.497*[#   6]
    |psi|^2 = 0.993

 k =   0.0000000000  0.0601406530  0.0000000000
==== e(   1) =   -21.80663 eV ==== 
     psi = 0.480*[#   1]+0.480*[#   5]+0.006*[#   3]+0.006*[#   4]+0.006*[#   7]
          +0.006*[#   8]
    |psi|^2 = 0.984
==== e(   2) =    -9.89071 eV ==== 
     psi = 0.474*[#   2]+0.474*[#   6]
    |psi|^2 = 0.948
==== e(   3) =    -5.67305 eV ==== 
     psi = 0.246*[#   3]+0.246*[#   4]+0.246*[#   7]+0.246*[#   8]+0.007*[#   1]
          +0.007*[#   5]
    |psi|^2 = 0.997
==== e(   4) =    -5.54856 eV ==== 
     psi = 0.249*[#   3]+0.249*[#   4]+0.249*[#   7]+0.249*[#   8]
    |psi|^2 = 0.997
==== e(   5) =     0.90164 eV ==== 
     psi = 0.002*[#   1]+0.002*[#   5]+0.002*[#   3]+0.002*[#   4]+0.002*[#   7]
          +0.002*[#   8]
    |psi|^2 = 0.011
==== e(   6) =     1.52977 eV ==== 
     psi = 0.007*[#   2]+0.007*[#   6]
    |psi|^2 = 0.015
==== e(   7) =     1.63594 eV ==== 
 
    |psi|^2 = 0.002
==== e(   8) =     2.66925 eV ==== 
     psi = 0.007*[#   2]+0.007*[#   6]
    |psi|^2 = 0.015
==== e(   9) =     3.08208 eV ==== 
 
    |psi|^2 = 0.003
==== e(  10) =     4.78311 eV ==== 
     psi = 0.005*[#   2]+0.005*[#   6]
    |psi|^2 = 0.010
==== e(  11) =     5.43386 eV ==== 
     psi = 0.001*[#   1]+0.001*[#   5]
    |psi|^2 = 0.004
==== e(  12) =     5.99815 eV ==== 
     psi = 0.228*[#   3]+0.228*[#   4]+0.228*[#   7]+0.228*[#   8]+0.013*[#   1]
          +0.013*[#   5]
    |psi|^2 = 0.938
==== e(  13) =     6.23725 eV ==== 
     psi = 0.237*[#   3]+0.237*[#   4]+0.237*[#   7]+0.237*[#   8]
    |psi|^2 = 0.949
==== e(  14) =     7.76918 eV ==== 
     psi = 0.003*[#   2]+0.003*[#   6]
    |psi|^2 = 0.006
==== e(  15) =     8.58360 eV ==== 
 
    |psi|^2 = 0.003
==== e(  16) =     8.82175 eV ==== 
     psi = 0.496*[#   2]+0.496*[#   6]
    |psi|^2 = 0.992

 k =   0.0000000000  0.0721687836  0.0000000000
==== e(   1) =   -21.77849 eV ==== 
     psi = 0.475*[#   1]+0.475*[#   5]+0.008*[#   3]+0.008*[#   4]+0.008*[#   7]
          +0.008*[#   8]
    |psi|^2 = 0.984
==== e(   2) =    -9.85706 eV ==== 
     psi = 0.474*[#   2]+0.474*[#   6]
    |psi|^2 = 0.949
==== e(   3) =    -5.78502 eV ==== 
     psi = 0.244*[#   3]+0.244*[#   4]+0.244*[#   7]+0.244*[#   8]+0.010*[#   1]
          +0.010*[#   5]
    |psi|^2 = 0.997
==== e(   4) =    -5.60675 eV ==== 
     psi = 0.249*[#   3]+0.249*[#   4]+0.249*[#   7]+0.249*[#   8]
    |psi|^2 = 0.997
==== e(   5) =     0.94005 eV ==== 
     psi = 0.002*[#   3]+0.002*[#   4]+0.002*[#   7]+0.002*[#   8]+0.002*[#   1]
          +0.002*[#   5]
    |psi|^2 = 0.013
==== e(   6) =     1.56870 eV ==== 
     psi = 0.007*[#   2]+0.007*[#   6]
    |psi|^2 = 0.015
==== e(   7) =     1.67506 eV ==== 
 
    |psi|^2 = 0.002
==== e(   8) =     2.70801 eV ==== 
     psi = 0.007*[#   2]+0.007*[#   6]
    |psi|^2 = 0.014
==== e(   9) =     3.12084 eV ==== 
 
    |psi|^2 = 0.003
==== e(  10) =     4.82155 eV ==== 
     psi = 0.005*[#   2]+0.005*[#   6]
    |psi|^2 = 0.010
==== e(  11) =     5.47091 eV ==== 
     psi = 0.002*[#   1]+0.002*[#   5]
    |psi|^2 = 0.006
==== e(  12) =     6.01118 eV ==== 
     psi = 0.224*[#   3]+0.224*[#   4]+0.224*[#   7]+0.224*[#   8]+0.019*[#   1]
          +0.019*[#   5]
    |psi|^2 = 0.932
==== e(  13) =     6.35657 eV ==== 
     psi = 0.237*[#   3]+0.237*[#   4]+0.237*[#   7]+0.237*[#   8]
    |psi|^2 = 0.948
==== e(  14) =     7.80700 eV ==== 
     psi = 0.003*[#   2]+0.003*[#   6]
    |psi|^2 = 0.006
==== e(  15) =     8.62251 eV ==== 
 
    |psi|^2 = 0.003
==== e(  16) =     8.72550 eV ==== 
     psi = 0.495*[#   2]+0.495*[#   6]
    |psi|^2 = 0.991

 k =   0.0000000000  0.0841969143  0.0000000000
==== e(   1) =   -21.74525 eV ==== 
     psi = 0.470*[#   1]+0.470*[#   5]+0.011*[#   3]+0.011*[#   4]+0.011*[#   7]
          +0.011*[#   8]
    |psi|^2 = 0.984
==== e(   2) =    -9.81734 eV ==== 
     psi = 0.475*[#   2]+0.475*[#   6]
    |psi|^2 = 0.950
==== e(   3) =    -5.91484 eV ==== 
     psi = 0.243*[#   3]+0.243*[#   4]+0.243*[#   7]+0.243*[#   8]+0.013*[#   1]
          +0.013*[#   5]
    |psi|^2 = 0.997
==== e(   4) =    -5.67373 eV ==== 
     psi = 0.249*[#   3]+0.249*[#   4]+0.249*[#   7]+0.249*[#   8]
    |psi|^2 = 0.997
==== e(   5) =     0.98544 eV ==== 
     psi = 0.003*[#   3]+0.003*[#   4]+0.003*[#   7]+0.003*[#   8]+0.002*[#   1]
          +0.002*[#   5]
    |psi|^2 = 0.016
==== e(   6) =     1.61471 eV ==== 
     psi = 0.007*[#   2]+0.007*[#   6]
    |psi|^2 = 0.015
==== e(   7) =     1.72129 eV ==== 
 
    |psi|^2 = 0.002
==== e(   8) =     2.75381 eV ==== 
     psi = 0.007*[#   2]+0.007*[#   6]
    |psi|^2 = 0.014
==== e(   9) =     3.16665 eV ==== 
 
    |psi|^2 = 0.003
==== e(  10) =     4.86698 eV ==== 
     psi = 0.005*[#   2]+0.005*[#   6]
    |psi|^2 = 0.010
==== e(  11) =     5.51453 eV ==== 
     psi = 0.002*[#   1]+0.002*[#   5]+0.001*[#   3]+0.001*[#   4]+0.001*[#   7]
          +0.001*[#   8]
    |psi|^2 = 0.008
==== e(  12) =     6.02412 eV ==== 
     psi = 0.219*[#   3]+0.219*[#   4]+0.219*[#   7]+0.219*[#   8]+0.025*[#   1]
          +0.025*[#   5]
    |psi|^2 = 0.926
==== e(  13) =     6.49568 eV ==== 
     psi = 0.237*[#   3]+0.237*[#   4]+0.237*[#   7]+0.237*[#   8]
    |psi|^2 = 0.948
==== e(  14) =     7.85165 eV ==== 
     psi = 0.003*[#   2]+0.003*[#   6]
    |psi|^2 = 0.006
==== e(  15) =     8.61309 eV ==== 
     psi = 0.495*[#   2]+0.495*[#   6]
    |psi|^2 = 0.989
==== e(  16) =     8.66844 eV ==== 
 
    |psi|^2 = 0.004

 k =   0.0000000000  0.0962250449  0.0000000000
==== e(   1) =   -21.70690 eV ==== 
     psi = 0.464*[#   1]+0.464*[#   5]+0.014*[#   3]+0.014*[#   4]+0.014*[#   7]
          +0.014*[#   8]
    |psi|^2 = 0.984
==== e(   2) =    -9.77154 eV ==== 
     psi = 0.475*[#   2]+0.475*[#   6]
    |psi|^2 = 0.951
==== e(   3) =    -6.06141 eV ==== 
     psi = 0.241*[#   3]+0.241*[#   4]+0.241*[#   7]+0.241*[#   8]+0.017*[#   1]
          +0.017*[#   5]
    |psi|^2 = 0.997
==== e(   4) =    -5.74875 eV ==== 
     psi = 0.249*[#   3]+0.249*[#   4]+0.249*[#   7]+0.249*[#   8]
    |psi|^2 = 0.997
==== e(   5) =     1.03781 eV ==== 
     psi = 0.004*[#   3]+0.004*[#   4]+0.004*[#   7]+0.004*[#   8]+0.001*[#   1]
          +0.001*[#   5]
    |psi|^2 = 0.018
==== e(   6) =     1.66778 eV ==== 
     psi = 0.007*[#   2]+0.007*[#   6]
    |psi|^2 = 0.014
==== e(   7) =     1.77464 eV ==== 
 
    |psi|^2 = 0.003
==== e(   8) =     2.80664 eV ==== 
     psi = 0.007*[#   2]+0.007*[#   6]
    |psi|^2 = 0.014
==== e(   9) =     3.21951 eV ==== 
 
    |psi|^2 = 0.004
==== e(  10) =     4.91937 eV ==== 
     psi = 0.005*[#   2]+0.005*[#   6]
    |psi|^2 = 0.010
==== e(  11) =     5.56455 eV ==== 
     psi = 0.002*[#   1]+0.002*[#   5]+0.002*[#   3]+0.002*[#   4]+0.002*[#   7]
          +0.002*[#   8]
    |psi|^2 = 0.012
==== e(  12) =     6.03619 eV ==== 
     psi = 0.213*[#   3]+0.213*[#   4]+0.213*[#   7]+0.213*[#   8]+0.033*[#   1]
          +0.033*[#   5]
    |psi|^2 = 0.917
==== e(  13) =     6.65375 eV ==== 
     psi = 0.237*[#   3]+0.237*[#   4]+0.237*[#   7]+0.237*[#   8]
    |psi|^2 = 0.947
==== e(  14) =     7.90308 eV ==== 
     psi = 0.003*[#   2]+0.003*[#   6]
    |psi|^2 = 0.006
==== e(  15) =     8.48514 eV ==== 
     psi = 0.494*[#   2]+0.494*[#   6]
    |psi|^2 = 0.987
==== e(  16) =     8.72136 eV ==== 
 
    |psi|^2 = 0.004

 k =   0.0000000000  0.1082531755  0.0000000000
==== e(   1) =   -21.66346 eV ==== 
     psi = 0.457*[#   1]+0.457*[#   5]+0.017*[#   3]+0.017*[#   4]+0.017*[#   7]
          +0.017*[#   8]
    |psi|^2 = 0.983
==== e(   2) =    -9.71970 eV ==== 
     psi = 0.476*[#   2]+0.476*[#   6]
    |psi|^2 = 0.952
==== e(   3) =    -6.22360 eV ==== 
     psi = 0.239*[#   3]+0.239*[#   4]+0.239*[#   7]+0.239*[#   8]+0.021*[#   1]
          +0.021*[#   5]
    |psi|^2 = 0.997
==== e(   4) =    -5.83097 eV ==== 
     psi = 0.249*[#   3]+0.249*[#   4]+0.249*[#   7]+0.249*[#   8]
    |psi|^2 = 0.997
==== e(   5) =     1.09717 eV ==== 
     psi = 0.005*[#   3]+0.005*[#   4]+0.005*[#   7]+0.005*[#   8]
    |psi|^2 = 0.021
==== e(   6) =     1.72793 eV ==== 
     psi = 0.007*[#   2]+0.007*[#   6]
    |psi|^2 = 0.014
==== e(   7) =     1.83510 eV ==== 
 
    |psi|^2 = 0.003
==== e(   8) =     2.86651 eV ==== 
     psi = 0.007*[#   2]+0.007*[#   6]
    |psi|^2 = 0.013
==== e(   9) =     3.27942 eV ==== 
 
    |psi|^2 = 0.004
==== e(  10) =     4.97873 eV ==== 
     psi = 0.005*[#   2]+0.005*[#   6]
    |psi|^2 = 0.009
==== e(  11) =     5.62067 eV ==== 
     psi = 0.003*[#   1]+0.003*[#   5]+0.003*[#   3]+0.003*[#   4]+0.003*[#   7]
          +0.003*[#   8]
    |psi|^2 = 0.018
==== e(  12) =     6.04680 eV ==== 
     psi = 0.206*[#   3]+0.206*[#   4]+0.206*[#   7]+0.206*[#   8]+0.041*[#   1]
          +0.041*[#   5]
    |psi|^2 = 0.906
==== e(  13) =     6.82988 eV ==== 
     psi = 0.236*[#   3]+0.236*[#   4]+0.236*[#   7]+0.236*[#   8]
    |psi|^2 = 0.946
==== e(  14) =     7.96113 eV ==== 
     psi = 0.003*[#   2]+0.003*[#   6]
    |psi|^2 = 0.007
==== e(  15) =     8.34247 eV ==== 
     psi = 0.492*[#   2]+0.492*[#   6]
    |psi|^2 = 0.985
==== e(  16) =     8.78125 eV ==== 
     psi = 0.001*[#   3]+0.001*[#   4]+0.001*[#   7]+0.001*[#   8]
    |psi|^2 = 0.005

 k =   0.0000000000  0.1202813061  0.0000000000
==== e(   1) =   -21.61494 eV ==== 
     psi = 0.450*[#   1]+0.450*[#   5]+0.021*[#   3]+0.021*[#   4]+0.021*[#   7]
          +0.021*[#   8]
    |psi|^2 = 0.983
==== e(   2) =    -9.66182 eV ==== 
     psi = 0.477*[#   2]+0.477*[#   6]
    |psi|^2 = 0.953
==== e(   3) =    -6.40022 eV ==== 
     psi = 0.237*[#   3]+0.237*[#   4]+0.237*[#   7]+0.237*[#   8]+0.025*[#   1]
          +0.025*[#   5]
    |psi|^2 = 0.997
==== e(   4) =    -5.91959 eV ==== 
     psi = 0.249*[#   3]+0.249*[#   4]+0.249*[#   7]+0.249*[#   8]
    |psi|^2 = 0.997
==== e(   5) =     1.16351 eV ==== 
     psi = 0.005*[#   3]+0.005*[#   4]+0.005*[#   7]+0.005*[#   8]
    |psi|^2 = 0.023
==== e(   6) =     1.79514 eV ==== 
     psi = 0.007*[#   2]+0.007*[#   6]
    |psi|^2 = 0.014
==== e(   7) =     1.90268 eV ==== 
 
    |psi|^2 = 0.003
==== e(   8) =     2.93340 eV ==== 
     psi = 0.007*[#   2]+0.007*[#   6]
    |psi|^2 = 0.013
==== e(   9) =     3.34638 eV ==== 
 
    |psi|^2 = 0.004
==== e(  10) =     5.04503 eV ==== 
     psi = 0.005*[#   2]+0.005*[#   6]
    |psi|^2 = 0.009
==== e(  11) =     5.68230 eV ==== 
     psi = 0.005*[#   3]+0.005*[#   4]+0.005*[#   7]+0.005*[#   8]+0.005*[#   1]
          +0.005*[#   5]
    |psi|^2 = 0.030
==== e(  12) =     6.05579 eV ==== 
     psi = 0.198*[#   3]+0.198*[#   4]+0.198*[#   7]+0.198*[#   8]+0.050*[#   1]
          +0.050*[#   5]
    |psi|^2 = 0.890
==== e(  13) =     7.02316 eV ==== 
     psi = 0.236*[#   3]+0.236*[#   4]+0.236*[#   7]+0.236*[#   8]
    |psi|^2 = 0.945
==== e(  14) =     8.02474 eV ==== 
     psi = 0.009*[#   2]+0.009*[#   6]
    |psi|^2 = 0.017
==== e(  15) =     8.18682 eV ==== 
     psi = 0.486*[#   2]+0.486*[#   6]
    |psi|^2 = 0.972
==== e(  16) =     8.84807 eV ==== 
     psi = 0.001*[#   3]+0.001*[#   4]+0.001*[#   7]+0.001*[#   8]
    |psi|^2 = 0.005

 k =   0.0000000000  0.1323094367  0.0000000000
==== e(   1) =   -21.56133 eV ==== 
     psi = 0.443*[#   1]+0.443*[#   5]+0.024*[#   3]+0.024*[#   4]+0.024*[#   7]
          +0.024*[#   8]
    |psi|^2 = 0.983
==== e(   2) =    -9.59795 eV ==== 
     psi = 0.477*[#   2]+0.477*[#   6]
    |psi|^2 = 0.955
==== e(   3) =    -6.59010 eV ==== 
     psi = 0.234*[#   3]+0.234*[#   4]+0.234*[#   7]+0.234*[#   8]+0.030*[#   1]
          +0.030*[#   5]
    |psi|^2 = 0.996
==== e(   4) =    -6.01375 eV ==== 
     psi = 0.249*[#   3]+0.249*[#   4]+0.249*[#   7]+0.249*[#   8]
    |psi|^2 = 0.997
==== e(   5) =     1.23683 eV ==== 
     psi = 0.006*[#   3]+0.006*[#   4]+0.006*[#   7]+0.006*[#   8]
    |psi|^2 = 0.025
==== e(   6) =     1.86942 eV ==== 
     psi = 0.007*[#   2]+0.007*[#   6]
    |psi|^2 = 0.013
==== e(   7) =     1.97737 eV ==== 
 
    |psi|^2 = 0.004
==== e(   8) =     3.00731 eV ==== 
     psi = 0.006*[#   2]+0.006*[#   6]
    |psi|^2 = 0.013
==== e(   9) =     3.42038 eV ==== 
 
    |psi|^2 = 0.004
==== e(  10) =     5.11827 eV ==== 
     psi = 0.004*[#   2]+0.004*[#   6]
    |psi|^2 = 0.009
==== e(  11) =     5.74817 eV ==== 
     psi = 0.010*[#   3]+0.010*[#   4]+0.010*[#   7]+0.010*[#   8]+0.008*[#   1]
          +0.008*[#   5]
    |psi|^2 = 0.055
==== e(  12) =     6.06382 eV ==== 
     psi = 0.187*[#   3]+0.187*[#   4]+0.187*[#   7]+0.187*[#   8]+0.057*[#   1]
          +0.057*[#   5]
    |psi|^2 = 0.861
==== e(  13) =     7.23266 eV ==== 
     psi = 0.236*[#   3]+0.236*[#   4]+0.236*[#   7]+0.236*[#   8]
    |psi|^2 = 0.943
==== e(  14) =     8.00789 eV ==== 
     psi = 0.460*[#   2]+0.460*[#   6]
    |psi|^2 = 0.919
==== e(  15) =     8.10493 eV ==== 
     psi = 0.034*[#   2]+0.034*[#   6]
    |psi|^2 = 0.068
==== e(  16) =     8.92180 eV ==== 
     psi = 0.001*[#   3]+0.001*[#   4]+0.001*[#   7]+0.001*[#   8]
    |psi|^2 = 0.006

 k =   0.0000000000  0.1443375673  0.0000000000
==== e(   1) =   -21.50266 eV ==== 
     psi = 0.435*[#   1]+0.435*[#   5]+0.028*[#   3]+0.028*[#   4]+0.028*[#   7]
          +0.028*[#   8]
    |psi|^2 = 0.983
==== e(   2) =    -9.52809 eV ==== 
     psi = 0.478*[#   2]+0.478*[#   6]
    |psi|^2 = 0.956
==== e(   3) =    -6.79206 eV ==== 
     psi = 0.232*[#   3]+0.232*[#   4]+0.232*[#   7]+0.232*[#   8]+0.034*[#   1]
          +0.034*[#   5]
    |psi|^2 = 0.996
==== e(   4) =    -6.11265 eV ==== 
     psi = 0.249*[#   3]+0.249*[#   4]+0.249*[#   7]+0.249*[#   8]
    |psi|^2 = 0.997
==== e(   5) =     1.31712 eV ==== 
     psi = 0.007*[#   3]+0.007*[#   4]+0.007*[#   7]+0.007*[#   8]
    |psi|^2 = 0.028
==== e(   6) =     1.95074 eV ==== 
     psi = 0.006*[#   2]+0.006*[#   6]
    |psi|^2 = 0.013
==== e(   7) =     2.05918 eV ==== 
 
    |psi|^2 = 0.004
==== e(   8) =     3.08824 eV ==== 
     psi = 0.006*[#   2]+0.006*[#   6]
    |psi|^2 = 0.012
==== e(   9) =     3.50143 eV ==== 
 
    |psi|^2 = 0.004
==== e(  10) =     5.19842 eV ==== 
     psi = 0.004*[#   2]+0.004*[#   6]
    |psi|^2 = 0.009
==== e(  11) =     5.81543 eV ==== 
     psi = 0.020*[#   3]+0.020*[#   4]+0.020*[#   7]+0.020*[#   8]+0.015*[#   1]
          +0.015*[#   5]
    |psi|^2 = 0.109
==== e(  12) =     6.07332 eV ==== 
     psi = 0.170*[#   3]+0.170*[#   4]+0.170*[#   7]+0.170*[#   8]+0.062*[#   1]
          +0.062*[#   5]
    |psi|^2 = 0.803
==== e(  13) =     7.45745 eV ==== 
     psi = 0.236*[#   3]+0.236*[#   4]+0.236*[#   7]+0.236*[#   8]
    |psi|^2 = 0.942
==== e(  14) =     7.82797 eV ==== 
     psi = 0.486*[#   2]+0.486*[#   6]
    |psi|^2 = 0.972
==== e(  15) =     8.18015 eV ==== 
     psi = 0.006*[#   2]+0.006*[#   6]
    |psi|^2 = 0.012
==== e(  16) =     9.00242 eV ==== 
     psi = 0.001*[#   3]+0.001*[#   4]+0.001*[#   7]+0.001*[#   8]
    |psi|^2 = 0.006

 k =   0.0000000000  0.1563656979  0.0000000000
==== e(   1) =   -21.43893 eV ==== 
     psi = 0.428*[#   1]+0.428*[#   5]+0.032*[#   3]+0.032*[#   4]+0.032*[#   7]
          +0.032*[#   8]
    |psi|^2 = 0.983
==== e(   2) =    -9.45230 eV ==== 
     psi = 0.479*[#   2]+0.479*[#   6]
    |psi|^2 = 0.958
==== e(   3) =    -7.00497 eV ==== 
     psi = 0.229*[#   3]+0.229*[#   4]+0.229*[#   7]+0.229*[#   8]+0.039*[#   1]
          +0.039*[#   5]
    |psi|^2 = 0.996
==== e(   4) =    -6.21549 eV ==== 
     psi = 0.249*[#   3]+0.249*[#   4]+0.249*[#   7]+0.249*[#   8]
    |psi|^2 = 0.997
==== e(   5) =     1.40440 eV ==== 
     psi = 0.007*[#   3]+0.007*[#   4]+0.007*[#   7]+0.007*[#   8]
    |psi|^2 = 0.030
==== e(   6) =     2.03912 eV ==== 
     psi = 0.006*[#   2]+0.006*[#   6]
    |psi|^2 = 0.012
==== e(   7) =     2.14810 eV ==== 
     psi = 0.001*[#   3]+0.001*[#   4]+0.001*[#   7]+0.001*[#   8]
    |psi|^2 = 0.004
==== e(   8) =     3.17617 eV ==== 
     psi = 0.006*[#   2]+0.006*[#   6]
    |psi|^2 = 0.012
==== e(   9) =     3.58952 eV ==== 
 
    |psi|^2 = 0.005
==== e(  10) =     5.28544 eV ==== 
     psi = 0.004*[#   2]+0.004*[#   6]
    |psi|^2 = 0.008
==== e(  11) =     5.87718 eV ==== 
     psi = 0.044*[#   3]+0.044*[#   4]+0.044*[#   7]+0.044*[#   8]+0.030*[#   1]
          +0.030*[#   5]
    |psi|^2 = 0.236
==== e(  12) =     6.09093 eV ==== 
     psi = 0.139*[#   3]+0.139*[#   4]+0.139*[#   7]+0.139*[#   8]+0.058*[#   1]
          +0.058*[#   5]
    |psi|^2 = 0.673
==== e(  13) =     7.63290 eV ==== 
     psi = 0.487*[#   2]+0.487*[#   6]
    |psi|^2 = 0.974
==== e(  14) =     7.69660 eV ==== 
     psi = 0.235*[#   3]+0.235*[#   4]+0.235*[#   7]+0.235*[#   8]
    |psi|^2 = 0.941
==== e(  15) =     8.26533 eV ==== 
     psi = 0.004*[#   2]+0.004*[#   6]
    |psi|^2 = 0.008
==== e(  16) =     9.08990 eV ==== 
     psi = 0.001*[#   3]+0.001*[#   4]+0.001*[#   7]+0.001*[#   8]
    |psi|^2 = 0.007

 k =   0.0000000000  0.1683938285  0.0000000000
==== e(   1) =   -21.37015 eV ==== 
     psi = 0.420*[#   1]+0.420*[#   5]+0.036*[#   3]+0.036*[#   4]+0.036*[#   7]
          +0.036*[#   8]
    |psi|^2 = 0.983
==== e(   2) =    -9.37060 eV ==== 
     psi = 0.480*[#   2]+0.480*[#   6]
    |psi|^2 = 0.960
==== e(   3) =    -7.22774 eV ==== 
     psi = 0.227*[#   3]+0.227*[#   4]+0.227*[#   7]+0.227*[#   8]+0.044*[#   1]
          +0.044*[#   5]
    |psi|^2 = 0.995
==== e(   4) =    -6.32151 eV ==== 
     psi = 0.249*[#   3]+0.249*[#   4]+0.249*[#   7]+0.249*[#   8]
    |psi|^2 = 0.997
==== e(   5) =     1.49864 eV ==== 
     psi = 0.008*[#   3]+0.008*[#   4]+0.008*[#   7]+0.008*[#   8]
    |psi|^2 = 0.031
==== e(   6) =     2.13454 eV ==== 
     psi = 0.006*[#   2]+0.006*[#   6]
    |psi|^2 = 0.012
==== e(   7) =     2.24413 eV ==== 
     psi = 0.001*[#   3]+0.001*[#   4]+0.001*[#   7]+0.001*[#   8]
    |psi|^2 = 0.004
==== e(   8) =     3.27108 eV ==== 
     psi = 0.006*[#   2]+0.006*[#   6]
    |psi|^2 = 0.011
==== e(   9) =     3.68464 eV ==== 
     psi = 0.001*[#   3]+0.001*[#   4]+0.001*[#   7]+0.001*[#   8]
    |psi|^2 = 0.005
==== e(  10) =     5.37929 eV ==== 
     psi = 0.004*[#   2]+0.004*[#   6]
    |psi|^2 = 0.008
==== e(  11) =     5.92047 eV ==== 
     psi = 0.085*[#   3]+0.085*[#   4]+0.085*[#   7]+0.085*[#   8]+0.060*[#   1]
          +0.060*[#   5]
    |psi|^2 = 0.457
==== e(  12) =     6.12956 eV ==== 
     psi = 0.091*[#   3]+0.091*[#   4]+0.091*[#   7]+0.091*[#   8]+0.042*[#   1]
          +0.042*[#   5]
    |psi|^2 = 0.448
==== e(  13) =     7.42631 eV ==== 
     psi = 0.486*[#   2]+0.486*[#   6]
    |psi|^2 = 0.973
==== e(  14) =     7.94920 eV ==== 
     psi = 0.235*[#   3]+0.235*[#   4]+0.235*[#   7]+0.235*[#   8]
    |psi|^2 = 0.940
==== e(  15) =     8.35765 eV ==== 
     psi = 0.004*[#   2]+0.004*[#   6]
    |psi|^2 = 0.007
==== e(  16) =     9.18424 eV ==== 
     psi = 0.002*[#   3]+0.002*[#   4]+0.002*[#   7]+0.002*[#   8]
    |psi|^2 = 0.007

 k =   0.0000000000  0.1804219591  0.0000000000
==== e(   1) =   -21.29634 eV ==== 
     psi = 0.412*[#   1]+0.412*[#   5]+0.040*[#   3]+0.040*[#   4]+0.040*[#   7]
          +0.040*[#   8]
    |psi|^2 = 0.983
==== e(   2) =    -9.28304 eV ==== 
     psi = 0.481*[#   2]+0.481*[#   6]
    |psi|^2 = 0.961
==== e(   3) =    -7.45932 eV ==== 
     psi = 0.224*[#   3]+0.224*[#   4]+0.224*[#   7]+0.224*[#   8]+0.049*[#   1]
          +0.049*[#   5]
    |psi|^2 = 0.995
==== e(   4) =    -6.42998 eV ==== 
     psi = 0.249*[#   3]+0.249*[#   4]+0.249*[#   7]+0.249*[#   8]
    |psi|^2 = 0.997
==== e(   5) =     1.59985 eV ==== 
     psi = 0.008*[#   3]+0.008*[#   4]+0.008*[#   7]+0.008*[#   8]
    |psi|^2 = 0.033
==== e(   6) =     2.23698 eV ==== 
     psi = 0.006*[#   2]+0.006*[#   6]
    |psi|^2 = 0.011
==== e(   7) =     2.34728 eV ==== 
     psi = 0.001*[#   3]+0.001*[#   4]+0.001*[#   7]+0.001*[#   8]
    |psi|^2 = 0.004
==== e(   8) =     3.37296 eV ==== 
     psi = 0.005*[#   2]+0.005*[#   6]
    |psi|^2 = 0.011
==== e(   9) =     3.78678 eV ==== 
     psi = 0.001*[#   3]+0.001*[#   4]+0.001*[#   7]+0.001*[#   8]
    |psi|^2 = 0.005
==== e(  10) =     5.47985 eV ==== 
     psi = 0.004*[#   2]+0.004*[#   6]
    |psi|^2 = 0.008
==== e(  11) =     5.93697 eV ==== 
     psi = 0.119*[#   3]+0.119*[#   4]+0.119*[#   7]+0.119*[#   8]+0.090*[#   1]
          +0.090*[#   5]
    |psi|^2 = 0.657
==== e(  12) =     6.19758 eV ==== 
     psi = 0.050*[#   3]+0.050*[#   4]+0.050*[#   7]+0.050*[#   8]+0.023*[#   1]
          +0.023*[#   5]
    |psi|^2 = 0.247
==== e(  13) =     7.20930 eV ==== 
     psi = 0.485*[#   2]+0.485*[#   6]
    |psi|^2 = 0.971
==== e(  14) =     8.21437 eV ==== 
     psi = 0.235*[#   3]+0.235*[#   4]+0.235*[#   7]+0.235*[#   8]
    |psi|^2 = 0.938
==== e(  15) =     8.45685 eV ==== 
     psi = 0.003*[#   2]+0.003*[#   6]
    |psi|^2 = 0.006
==== e(  16) =     9.28543 eV ==== 
     psi = 0.001*[#   3]+0.001*[#   4]+0.001*[#   7]+0.001*[#   8]
    |psi|^2 = 0.007

 k =   0.0000000000  0.1924500897  0.0000000000
==== e(   1) =   -21.21750 eV ==== 
     psi = 0.404*[#   1]+0.404*[#   5]+0.043*[#   3]+0.043*[#   4]+0.043*[#   7]
          +0.043*[#   8]
    |psi|^2 = 0.982
==== e(   2) =    -9.18966 eV ==== 
     psi = 0.482*[#   2]+0.482*[#   6]
    |psi|^2 = 0.963
==== e(   3) =    -7.69872 eV ==== 
     psi = 0.221*[#   3]+0.221*[#   4]+0.221*[#   7]+0.221*[#   8]+0.055*[#   1]
          +0.055*[#   5]
    |psi|^2 = 0.995
==== e(   4) =    -6.54023 eV ==== 
     psi = 0.249*[#   3]+0.249*[#   4]+0.249*[#   7]+0.249*[#   8]
    |psi|^2 = 0.997
==== e(   5) =     1.70802 eV ==== 
     psi = 0.008*[#   3]+0.008*[#   4]+0.008*[#   7]+0.008*[#   8]
    |psi|^2 = 0.034
==== e(   6) =     2.34644 eV ==== 
     psi = 0.005*[#   2]+0.005*[#   6]
    |psi|^2 = 0.011
==== e(   7) =     2.45754 eV ==== 
     psi = 0.001*[#   3]+0.001*[#   4]+0.001*[#   7]+0.001*[#   8]
    |psi|^2 = 0.005
==== e(   8) =     3.48179 eV ==== 
     psi = 0.005*[#   2]+0.005*[#   6]
    |psi|^2 = 0.010
==== e(   9) =     3.89594 eV ==== 
 
    |psi|^2 = 0.004
==== e(  10) =     5.58695 eV ==== 
     psi = 0.004*[#   2]+0.004*[#   6]
    |psi|^2 = 0.008
==== e(  11) =     5.93327 eV ==== 
     psi = 0.134*[#   3]+0.134*[#   4]+0.134*[#   7]+0.134*[#   8]+0.113*[#   1]
          +0.113*[#   5]
    |psi|^2 = 0.763
==== e(  12) =     6.28863 eV ==== 
     psi = 0.028*[#   3]+0.028*[#   4]+0.028*[#   7]+0.028*[#   8]+0.013*[#   1]
          +0.013*[#   5]
    |psi|^2 = 0.139
==== e(  13) =     6.98292 eV ==== 
     psi = 0.484*[#   2]+0.484*[#   6]
    |psi|^2 = 0.968
==== e(  14) =     8.49126 eV ==== 
     psi = 0.234*[#   3]+0.234*[#   4]+0.234*[#   7]+0.234*[#   8]
    |psi|^2 = 0.937
==== e(  15) =     8.56283 eV ==== 
     psi = 0.003*[#   2]+0.003*[#   6]
    |psi|^2 = 0.006
==== e(  16) =     9.39345 eV ==== 
     psi = 0.001*[#   3]+0.001*[#   4]+0.001*[#   7]+0.001*[#   8]
    |psi|^2 = 0.007

 k =   0.0000000000  0.2044782203  0.0000000000
==== e(   1) =   -21.13367 eV ==== 
     psi = 0.397*[#   1]+0.397*[#   5]+0.047*[#   3]+0.047*[#   4]+0.047*[#   7]
          +0.047*[#   8]
    |psi|^2 = 0.982
==== e(   2) =    -9.09052 eV ==== 
     psi = 0.483*[#   2]+0.483*[#   6]
    |psi|^2 = 0.965
==== e(   3) =    -7.94501 eV ==== 
     psi = 0.219*[#   3]+0.219*[#   4]+0.219*[#   7]+0.219*[#   8]+0.060*[#   1]
          +0.060*[#   5]
    |psi|^2 = 0.994
==== e(   4) =    -6.65161 eV ==== 
     psi = 0.249*[#   3]+0.249*[#   4]+0.249*[#   7]+0.249*[#   8]
    |psi|^2 = 0.997
==== e(   5) =     1.82315 eV ==== 
     psi = 0.009*[#   3]+0.009*[#   4]+0.009*[#   7]+0.009*[#   8]
    |psi|^2 = 0.035
==== e(   6) =     2.46290 eV ==== 
     psi = 0.005*[#   2]+0.005*[#   6]
    |psi|^2 = 0.010
==== e(   7) =     2.57491 eV ==== 
     psi = 0.001*[#   3]+0.001*[#   4]+0.001*[#   7]+0.001*[#   8]
    |psi|^2 = 0.005
==== e(   8) =     3.59752 eV ==== 
     psi = 0.005*[#   2]+0.005*[#   6]
    |psi|^2 = 0.010
==== e(   9) =     4.01210 eV ==== 
 
    |psi|^2 = 0.004
==== e(  10) =     5.70013 eV ==== 
     psi = 0.005*[#   2]+0.005*[#   6]
    |psi|^2 = 0.010
==== e(  11) =     5.91784 eV ==== 
     psi = 0.138*[#   3]+0.138*[#   4]+0.138*[#   7]+0.138*[#   8]+0.131*[#   1]
          +0.131*[#   5]
    |psi|^2 = 0.813
==== e(  12) =     6.39453 eV ==== 
     psi = 0.018*[#   3]+0.018*[#   4]+0.018*[#   7]+0.018*[#   8]+0.008*[#   1]
          +0.008*[#   5]
    |psi|^2 = 0.087
==== e(  13) =     6.74843 eV ==== 
     psi = 0.482*[#   2]+0.482*[#   6]
    |psi|^2 = 0.964
==== e(  14) =     8.67554 eV ==== 
     psi = 0.003*[#   2]+0.003*[#   6]
    |psi|^2 = 0.006
==== e(  15) =     8.77901 eV ==== 
     psi = 0.234*[#   3]+0.234*[#   4]+0.234*[#   7]+0.234*[#   8]
    |psi|^2 = 0.935
==== e(  16) =     9.50831 eV ==== 
     psi = 0.001*[#   3]+0.001*[#   4]+0.001*[#   7]+0.001*[#   8]
    |psi|^2 = 0.007

 k =   0.0000000000  0.2165063509  0.0000000000
==== e(   1) =   -21.04484 eV ==== 
     psi = 0.389*[#   1]+0.389*[#   5]+0.051*[#   3]+0.051*[#   4]+0.051*[#   7]
          +0.051*[#   8]
    |psi|^2 = 0.982
==== e(   2) =    -8.98566 eV ==== 
     psi = 0.484*[#   2]+0.484*[#   6]
    |psi|^2 = 0.967
==== e(   3) =    -8.19732 eV ==== 
     psi = 0.216*[#   3]+0.216*[#   4]+0.216*[#   7]+0.216*[#   8]+0.065*[#   1]
          +0.065*[#   5]
    |psi|^2 = 0.994
==== e(   4) =    -6.76355 eV ==== 
     psi = 0.249*[#   3]+0.249*[#   4]+0.249*[#   7]+0.249*[#   8]
    |psi|^2 = 0.997
==== e(   5) =     1.94522 eV ==== 
     psi = 0.009*[#   3]+0.009*[#   4]+0.009*[#   7]+0.009*[#   8]
    |psi|^2 = 0.035
==== e(   6) =     2.58634 eV ==== 
     psi = 0.005*[#   2]+0.005*[#   6]
    |psi|^2 = 0.010
==== e(   7) =     2.69939 eV ==== 
     psi = 0.001*[#   3]+0.001*[#   4]+0.001*[#   7]+0.001*[#   8]
    |psi|^2 = 0.005
==== e(   8) =     3.72009 eV ==== 
     psi = 0.005*[#   2]+0.005*[#   6]
    |psi|^2 = 0.009
==== e(   9) =     4.13523 eV ==== 
 
    |psi|^2 = 0.004
==== e(  10) =     5.81794 eV ==== 
     psi = 0.008*[#   2]+0.008*[#   6]
    |psi|^2 = 0.017
==== e(  11) =     5.89516 eV ==== 
     psi = 0.146*[#   1]+0.146*[#   5]+0.137*[#   3]+0.137*[#   4]+0.137*[#   7]
          +0.137*[#   8]
    |psi|^2 = 0.839
==== e(  12) =     6.50809 eV ==== 
     psi = 0.478*[#   2]+0.478*[#   6]
    |psi|^2 = 0.955
==== e(  13) =     6.51119 eV ==== 
     psi = 0.012*[#   3]+0.012*[#   4]+0.012*[#   7]+0.012*[#   8]+0.005*[#   1]
          +0.005*[#   5]
    |psi|^2 = 0.060
==== e(  14) =     8.79495 eV ==== 
     psi = 0.003*[#   2]+0.003*[#   6]
    |psi|^2 = 0.005
==== e(  15) =     9.07682 eV ==== 
     psi = 0.233*[#   3]+0.233*[#   4]+0.233*[#   7]+0.233*[#   8]
    |psi|^2 = 0.934
==== e(  16) =     9.62999 eV ==== 
     psi = 0.001*[#   3]+0.001*[#   4]+0.001*[#   7]+0.001*[#   8]
    |psi|^2 = 0.007

 k =   0.0000000000  0.2285344816  0.0000000000
==== e(   1) =   -20.95104 eV ==== 
     psi = 0.382*[#   1]+0.382*[#   5]+0.055*[#   3]+0.055*[#   4]+0.055*[#   7]
          +0.055*[#   8]
    |psi|^2 = 0.982
==== e(   2) =    -8.87516 eV ==== 
     psi = 0.485*[#   2]+0.485*[#   6]
    |psi|^2 = 0.969
==== e(   3) =    -8.45485 eV ==== 
     psi = 0.214*[#   3]+0.214*[#   4]+0.214*[#   7]+0.214*[#   8]+0.070*[#   1]
          +0.070*[#   5]
    |psi|^2 = 0.994
==== e(   4) =    -6.87549 eV ==== 
     psi = 0.249*[#   3]+0.249*[#   4]+0.249*[#   7]+0.249*[#   8]
    |psi|^2 = 0.997
==== e(   5) =     2.07423 eV ==== 
     psi = 0.009*[#   3]+0.009*[#   4]+0.009*[#   7]+0.009*[#   8]
    |psi|^2 = 0.035
==== e(   6) =     2.71671 eV ==== 
     psi = 0.005*[#   2]+0.005*[#   6]
    |psi|^2 = 0.009
==== e(   7) =     2.83099 eV ==== 
     psi = 0.001*[#   3]+0.001*[#   4]+0.001*[#   7]+0.001*[#   8]
    |psi|^2 = 0.004
==== e(   8) =     3.84941 eV ==== 
     psi = 0.005*[#   2]+0.005*[#   6]
    |psi|^2 = 0.009
==== e(   9) =     4.26531 eV ==== 
 
    |psi|^2 = 0.004
==== e(  10) =     5.86745 eV ==== 
     psi = 0.160*[#   1]+0.160*[#   5]+0.134*[#   3]+0.134*[#   4]+0.134*[#   7]
          +0.134*[#   8]
    |psi|^2 = 0.855
==== e(  11) =     5.93240 eV ==== 
     psi = 0.033*[#   2]+0.033*[#   6]
    |psi|^2 = 0.067
==== e(  12) =     6.27073 eV ==== 
     psi = 0.451*[#   2]+0.451*[#   6]
    |psi|^2 = 0.902
==== e(  13) =     6.63682 eV ==== 
     psi = 0.009*[#   3]+0.009*[#   4]+0.009*[#   7]+0.009*[#   8]+0.004*[#   1]
          +0.004*[#   5]
    |psi|^2 = 0.045
==== e(  14) =     8.92101 eV ==== 
     psi = 0.003*[#   2]+0.003*[#   6]
    |psi|^2 = 0.005
==== e(  15) =     9.38388 eV ==== 
     psi = 0.233*[#   3]+0.233*[#   4]+0.233*[#   7]+0.233*[#   8]
    |psi|^2 = 0.932
==== e(  16) =     9.75851 eV ==== 
     psi = 0.001*[#   3]+0.001*[#   4]+0.001*[#   7]+0.001*[#   8]
    |psi|^2 = 0.007

 k =   0.0000000000  0.2405626122  0.0000000000
==== e(   1) =   -20.85229 eV ==== 
     psi = 0.374*[#   1]+0.374*[#   5]+0.058*[#   3]+0.058*[#   4]+0.058*[#   7]
          +0.058*[#   8]
    |psi|^2 = 0.982
==== e(   2) =    -8.75908 eV ==== 
     psi = 0.486*[#   2]+0.486*[#   6]
    |psi|^2 = 0.971
==== e(   3) =    -8.71683 eV ==== 
     psi = 0.211*[#   3]+0.211*[#   4]+0.211*[#   7]+0.211*[#   8]+0.075*[#   1]
          +0.075*[#   5]
    |psi|^2 = 0.993
==== e(   4) =    -6.98694 eV ==== 
     psi = 0.249*[#   3]+0.249*[#   4]+0.249*[#   7]+0.249*[#   8]
    |psi|^2 = 0.997
==== e(   5) =     2.21016 eV ==== 
     psi = 0.009*[#   3]+0.009*[#   4]+0.009*[#   7]+0.009*[#   8]
    |psi|^2 = 0.035
==== e(   6) =     2.85396 eV ==== 
     psi = 0.005*[#   2]+0.005*[#   6]
    |psi|^2 = 0.009
==== e(   7) =     2.96968 eV ==== 
     psi = 0.001*[#   3]+0.001*[#   4]+0.001*[#   7]+0.001*[#   8]
    |psi|^2 = 0.004
==== e(   8) =     3.98531 eV ==== 
     psi = 0.005*[#   2]+0.005*[#   6]
    |psi|^2 = 0.009
==== e(   9) =     4.40229 eV ==== 
 
    |psi|^2 = 0.004
==== e(  10) =     5.83604 eV ==== 
     psi = 0.172*[#   1]+0.172*[#   5]+0.130*[#   3]+0.130*[#   4]+0.130*[#   7]
          +0.130*[#   8]
    |psi|^2 = 0.864
==== e(  11) =     5.93359 eV ==== 
     psi = 0.351*[#   2]+0.351*[#   6]
    |psi|^2 = 0.701
==== e(  12) =     6.14721 eV ==== 
     psi = 0.132*[#   2]+0.132*[#   6]
    |psi|^2 = 0.265
==== e(  13) =     6.77057 eV ==== 
     psi = 0.007*[#   3]+0.007*[#   4]+0.007*[#   7]+0.007*[#   8]+0.003*[#   1]
          +0.003*[#   5]
    |psi|^2 = 0.035
==== e(  14) =     9.05368 eV ==== 
     psi = 0.002*[#   2]+0.002*[#   6]
    |psi|^2 = 0.005
==== e(  15) =     9.69943 eV ==== 
     psi = 0.233*[#   3]+0.233*[#   4]+0.233*[#   7]+0.233*[#   8]
    |psi|^2 = 0.930
==== e(  16) =     9.89385 eV ==== 
     psi = 0.001*[#   3]+0.001*[#   4]+0.001*[#   7]+0.001*[#   8]
    |psi|^2 = 0.006

 k =   0.0000000000  0.2525907428  0.0000000000
==== e(   1) =   -20.74861 eV ==== 
     psi = 0.367*[#   1]+0.367*[#   5]+0.062*[#   3]+0.062*[#   4]+0.062*[#   7]
          +0.062*[#   8]
    |psi|^2 = 0.982
==== e(   2) =    -8.98258 eV ==== 
     psi = 0.208*[#   3]+0.208*[#   4]+0.208*[#   7]+0.208*[#   8]+0.080*[#   1]
          +0.080*[#   5]
    |psi|^2 = 0.993
==== e(   3) =    -8.63752 eV ==== 
     psi = 0.486*[#   2]+0.486*[#   6]
    |psi|^2 = 0.973
==== e(   4) =    -7.09743 eV ==== 
     psi = 0.249*[#   3]+0.249*[#   4]+0.249*[#   7]+0.249*[#   8]
    |psi|^2 = 0.997
==== e(   5) =     2.35302 eV ==== 
     psi = 0.009*[#   3]+0.009*[#   4]+0.009*[#   7]+0.009*[#   8]
    |psi|^2 = 0.034
==== e(   6) =     2.99800 eV ==== 
     psi = 0.004*[#   2]+0.004*[#   6]
    |psi|^2 = 0.009
==== e(   7) =     3.11549 eV ==== 
     psi = 0.001*[#   3]+0.001*[#   4]+0.001*[#   7]+0.001*[#   8]
    |psi|^2 = 0.004
==== e(   8) =     4.12743 eV ==== 
     psi = 0.005*[#   2]+0.005*[#   6]
    |psi|^2 = 0.010
==== e(   9) =     4.54608 eV ==== 
 
    |psi|^2 = 0.003
==== e(  10) =     5.70628 eV ==== 
     psi = 0.459*[#   2]+0.459*[#   6]
    |psi|^2 = 0.918
==== e(  11) =     5.80187 eV ==== 
     psi = 0.184*[#   1]+0.184*[#   5]+0.126*[#   3]+0.126*[#   4]+0.126*[#   7]
          +0.126*[#   8]
    |psi|^2 = 0.871
==== e(  12) =     6.25389 eV ==== 
     psi = 0.022*[#   2]+0.022*[#   6]
    |psi|^2 = 0.044
==== e(  13) =     6.91201 eV ==== 
     psi = 0.006*[#   3]+0.006*[#   4]+0.006*[#   7]+0.006*[#   8]+0.002*[#   1]
          +0.002*[#   5]
    |psi|^2 = 0.028
==== e(  14) =     9.19290 eV ==== 
     psi = 0.002*[#   2]+0.002*[#   6]
    |psi|^2 = 0.005
==== e(  15) =    10.02267 eV ==== 
     psi = 0.232*[#   3]+0.232*[#   4]+0.232*[#   7]+0.232*[#   8]
    |psi|^2 = 0.929
==== e(  16) =    10.03601 eV ==== 
     psi = 0.001*[#   3]+0.001*[#   4]+0.001*[#   7]+0.001*[#   8]
    |psi|^2 = 0.006

 k =   0.0000000000  0.2646188734  0.0000000000
==== e(   1) =   -20.64002 eV ==== 
     psi = 0.360*[#   1]+0.360*[#   5]+0.065*[#   3]+0.065*[#   4]+0.065*[#   7]
          +0.065*[#   8]
    |psi|^2 = 0.981
==== e(   2) =    -9.25142 eV ==== 
     psi = 0.206*[#   3]+0.206*[#   4]+0.206*[#   7]+0.206*[#   8]+0.085*[#   1]
          +0.085*[#   5]
    |psi|^2 = 0.993
==== e(   3) =    -8.51055 eV ==== 
     psi = 0.487*[#   2]+0.487*[#   6]
    |psi|^2 = 0.975
==== e(   4) =    -7.20655 eV ==== 
     psi = 0.249*[#   3]+0.249*[#   4]+0.249*[#   7]+0.249*[#   8]
    |psi|^2 = 0.997
==== e(   5) =     2.50278 eV ==== 
     psi = 0.008*[#   3]+0.008*[#   4]+0.008*[#   7]+0.008*[#   8]
    |psi|^2 = 0.033
==== e(   6) =     3.14869 eV ==== 
     psi = 0.004*[#   2]+0.004*[#   6]
    |psi|^2 = 0.009
==== e(   7) =     3.26839 eV ==== 
 
    |psi|^2 = 0.004
==== e(   8) =     4.27489 eV ==== 
     psi = 0.007*[#   2]+0.007*[#   6]
    |psi|^2 = 0.013
==== e(   9) =     4.69655 eV ==== 
     psi = 0.001*[#   1]+0.001*[#   5]
    |psi|^2 = 0.003
==== e(  10) =     5.44627 eV ==== 
     psi = 0.467*[#   2]+0.467*[#   6]
    |psi|^2 = 0.935
==== e(  11) =     5.76577 eV ==== 
     psi = 0.196*[#   1]+0.196*[#   5]+0.121*[#   3]+0.121*[#   4]+0.121*[#   7]
          +0.121*[#   8]
    |psi|^2 = 0.876
==== e(  12) =     6.39670 eV ==== 
     psi = 0.010*[#   2]+0.010*[#   6]
    |psi|^2 = 0.021
==== e(  13) =     7.06088 eV ==== 
     psi = 0.005*[#   3]+0.005*[#   4]+0.005*[#   7]+0.005*[#   8]+0.002*[#   1]
          +0.002*[#   5]
    |psi|^2 = 0.024
==== e(  14) =     9.33861 eV ==== 
     psi = 0.002*[#   2]+0.002*[#   6]
    |psi|^2 = 0.005
==== e(  15) =    10.18498 eV ==== 
     psi = 0.001*[#   3]+0.001*[#   4]+0.001*[#   7]+0.001*[#   8]
    |psi|^2 = 0.006
==== e(  16) =    10.35285 eV ==== 
     psi = 0.232*[#   3]+0.232*[#   4]+0.232*[#   7]+0.232*[#   8]
    |psi|^2 = 0.928

 k =   0.0000000000  0.2766470040  0.0000000000
==== e(   1) =   -20.52654 eV ==== 
     psi = 0.353*[#   1]+0.353*[#   5]+0.069*[#   3]+0.069*[#   4]+0.069*[#   7]
          +0.069*[#   8]
    |psi|^2 = 0.981
==== e(   2) =    -9.52278 eV ==== 
     psi = 0.203*[#   3]+0.203*[#   4]+0.203*[#   7]+0.203*[#   8]+0.090*[#   1]
          +0.090*[#   5]
    |psi|^2 = 0.993
==== e(   3) =    -8.37828 eV ==== 
     psi = 0.488*[#   2]+0.488*[#   6]
    |psi|^2 = 0.977
==== e(   4) =    -7.31390 eV ==== 
     psi = 0.249*[#   3]+0.249*[#   4]+0.249*[#   7]+0.249*[#   8]
    |psi|^2 = 0.997
==== e(   5) =     2.65942 eV ==== 
     psi = 0.008*[#   3]+0.008*[#   4]+0.008*[#   7]+0.008*[#   8]
    |psi|^2 = 0.032
==== e(   6) =     3.30571 eV ==== 
     psi = 0.005*[#   2]+0.005*[#   6]
    |psi|^2 = 0.009
==== e(   7) =     3.42840 eV ==== 
 
    |psi|^2 = 0.004
==== e(   8) =     4.42483 eV ==== 
     psi = 0.013*[#   2]+0.013*[#   6]
    |psi|^2 = 0.026
==== e(   9) =     4.85342 eV ==== 
     psi = 0.002*[#   1]+0.002*[#   5]
    |psi|^2 = 0.004
==== e(  10) =     5.18255 eV ==== 
     psi = 0.463*[#   2]+0.463*[#   6]
    |psi|^2 = 0.925
==== e(  11) =     5.72860 eV ==== 
     psi = 0.206*[#   1]+0.206*[#   5]+0.117*[#   3]+0.117*[#   4]+0.117*[#   7]
          +0.117*[#   8]
    |psi|^2 = 0.880
==== e(  12) =     6.55045 eV ==== 
     psi = 0.007*[#   2]+0.007*[#   6]
    |psi|^2 = 0.014
==== e(  13) =     7.21705 eV ==== 
     psi = 0.004*[#   3]+0.004*[#   4]+0.004*[#   7]+0.004*[#   8]+0.002*[#   1]
          +0.002*[#   5]
    |psi|^2 = 0.020
==== e(  14) =     9.49076 eV ==== 
     psi = 0.002*[#   2]+0.002*[#   6]
    |psi|^2 = 0.005
==== e(  15) =    10.34076 eV ==== 
     psi = 0.001*[#   3]+0.001*[#   4]+0.001*[#   7]+0.001*[#   8]
    |psi|^2 = 0.006
==== e(  16) =    10.68917 eV ==== 
     psi = 0.232*[#   3]+0.232*[#   4]+0.232*[#   7]+0.232*[#   8]
    |psi|^2 = 0.926

 k =   0.0000000000  0.2886751346  0.0000000000
==== e(   1) =   -20.40822 eV ==== 
     psi = 0.347*[#   1]+0.347*[#   5]+0.072*[#   3]+0.072*[#   4]+0.072*[#   7]
          +0.072*[#   8]
    |psi|^2 = 0.981
==== e(   2) =    -9.79608 eV ==== 
     psi = 0.201*[#   3]+0.201*[#   4]+0.201*[#   7]+0.201*[#   8]+0.094*[#   1]
          +0.094*[#   5]
    |psi|^2 = 0.992
==== e(   3) =    -8.24083 eV ==== 
     psi = 0.489*[#   2]+0.489*[#   6]
    |psi|^2 = 0.979
==== e(   4) =    -7.41914 eV ==== 
     psi = 0.249*[#   3]+0.249*[#   4]+0.249*[#   7]+0.249*[#   8]
    |psi|^2 = 0.997
==== e(   5) =     2.82294 eV ==== 
     psi = 0.008*[#   3]+0.008*[#   4]+0.008*[#   7]+0.008*[#   8]
    |psi|^2 = 0.031
==== e(   6) =     3.46837 eV ==== 
     psi = 0.006*[#   2]+0.006*[#   6]
    |psi|^2 = 0.012
==== e(   7) =     3.59549 eV ==== 
 
    |psi|^2 = 0.003
==== e(   8) =     4.56098 eV ==== 
     psi = 0.059*[#   2]+0.059*[#   6]
    |psi|^2 = 0.117
==== e(   9) =     4.93559 eV ==== 
     psi = 0.416*[#   2]+0.416*[#   6]
    |psi|^2 = 0.832
==== e(  10) =     5.01607 eV ==== 
     psi = 0.004*[#   1]+0.004*[#   5]
    |psi|^2 = 0.008
==== e(  11) =     5.69148 eV ==== 
     psi = 0.215*[#   1]+0.215*[#   5]+0.113*[#   3]+0.113*[#   4]+0.113*[#   7]
          +0.113*[#   8]
    |psi|^2 = 0.880
==== e(  12) =     6.71231 eV ==== 
     psi = 0.005*[#   2]+0.005*[#   6]
    |psi|^2 = 0.011
==== e(  13) =     7.38041 eV ==== 
     psi = 0.004*[#   3]+0.004*[#   4]+0.004*[#   7]+0.004*[#   8]+0.001*[#   1]
          +0.001*[#   5]
    |psi|^2 = 0.017
==== e(  14) =     9.64926 eV ==== 
     psi = 0.002*[#   2]+0.002*[#   6]
    |psi|^2 = 0.004
==== e(  15) =    10.50332 eV ==== 
 
    |psi|^2 = 0.005
==== e(  16) =    11.03086 eV ==== 
     psi = 0.231*[#   3]+0.231*[#   4]+0.231*[#   7]+0.231*[#   8]
    |psi|^2 = 0.925

 k =   0.0000000000  0.3007032652  0.0000000000
==== e(   1) =   -20.28506 eV ==== 
     psi = 0.340*[#   1]+0.340*[#   5]+0.075*[#   3]+0.075*[#   4]+0.075*[#   7]
          +0.075*[#   8]
    |psi|^2 = 0.981
==== e(   2) =   -10.07082 eV ==== 
     psi = 0.199*[#   3]+0.199*[#   4]+0.199*[#   7]+0.199*[#   8]+0.099*[#   1]
          +0.099*[#   5]
    |psi|^2 = 0.992
==== e(   3) =    -8.09832 eV ==== 
     psi = 0.490*[#   2]+0.490*[#   6]
    |psi|^2 = 0.981
==== e(   4) =    -7.52194 eV ==== 
     psi = 0.249*[#   3]+0.249*[#   4]+0.249*[#   7]+0.249*[#   8]
    |psi|^2 = 0.997
==== e(   5) =     2.99330 eV ==== 
     psi = 0.007*[#   3]+0.007*[#   4]+0.007*[#   7]+0.007*[#   8]
    |psi|^2 = 0.029
==== e(   6) =     3.63467 eV ==== 
     psi = 0.010*[#   2]+0.010*[#   6]
    |psi|^2 = 0.020
==== e(   7) =     3.76966 eV ==== 
 
    |psi|^2 = 0.003
==== e(   8) =     4.53920 eV ==== 
     psi = 0.355*[#   2]+0.355*[#   6]
    |psi|^2 = 0.710
==== e(   9) =     4.85292 eV ==== 
     psi = 0.115*[#   2]+0.115*[#   6]
    |psi|^2 = 0.230
==== e(  10) =     5.18274 eV ==== 
     psi = 0.009*[#   1]+0.009*[#   5]
    |psi|^2 = 0.019
==== e(  11) =     5.65662 eV ==== 
     psi = 0.220*[#   1]+0.220*[#   5]+0.108*[#   3]+0.108*[#   4]+0.108*[#   7]
          +0.108*[#   8]
    |psi|^2 = 0.871
==== e(  12) =     6.88153 eV ==== 
     psi = 0.005*[#   2]+0.005*[#   6]
    |psi|^2 = 0.009
==== e(  13) =     7.55089 eV ==== 
     psi = 0.003*[#   3]+0.003*[#   4]+0.003*[#   7]+0.003*[#   8]+0.001*[#   1]
          +0.001*[#   5]
    |psi|^2 = 0.015
==== e(  14) =     9.81402 eV ==== 
     psi = 0.002*[#   2]+0.002*[#   6]
    |psi|^2 = 0.004
==== e(  15) =    10.67265 eV ==== 
 
    |psi|^2 = 0.005
==== e(  16) =    11.37710 eV ==== 
     psi = 0.231*[#   3]+0.231*[#   4]+0.231*[#   7]+0.231*[#   8]
    |psi|^2 = 0.924

 k =   0.0000000000  0.3127313958  0.0000000000
==== e(   1) =   -20.15711 eV ==== 
     psi = 0.334*[#   1]+0.334*[#   5]+0.078*[#   3]+0.078*[#   4]+0.078*[#   7]
          +0.078*[#   8]
    |psi|^2 = 0.981
==== e(   2) =   -10.34651 eV ==== 
     psi = 0.196*[#   3]+0.196*[#   4]+0.196*[#   7]+0.196*[#   8]+0.103*[#   1]
          +0.103*[#   5]
    |psi|^2 = 0.992
==== e(   3) =    -7.95092 eV ==== 
     psi = 0.491*[#   2]+0.491*[#   6]
    |psi|^2 = 0.982
==== e(   4) =    -7.62201 eV ==== 
     psi = 0.249*[#   3]+0.249*[#   4]+0.249*[#   7]+0.249*[#   8]
    |psi|^2 = 0.997
==== e(   5) =     3.17047 eV ==== 
     psi = 0.007*[#   3]+0.007*[#   4]+0.007*[#   7]+0.007*[#   8]
    |psi|^2 = 0.027
==== e(   6) =     3.79561 eV ==== 
     psi = 0.032*[#   2]+0.032*[#   6]
    |psi|^2 = 0.064
==== e(   7) =     3.95091 eV ==== 
 
    |psi|^2 = 0.003
==== e(   8) =     4.31446 eV ==== 
     psi = 0.422*[#   2]+0.422*[#   6]
    |psi|^2 = 0.845
==== e(   9) =     4.98952 eV ==== 
     psi = 0.025*[#   2]+0.025*[#   6]
    |psi|^2 = 0.050
==== e(  10) =     5.34641 eV ==== 
     psi = 0.028*[#   1]+0.028*[#   5]+0.005*[#   3]+0.005*[#   4]+0.005*[#   7]
          +0.005*[#   8]
    |psi|^2 = 0.079
==== e(  11) =     5.63147 eV ==== 
     psi = 0.210*[#   1]+0.210*[#   5]+0.099*[#   3]+0.099*[#   4]+0.099*[#   7]
          +0.099*[#   8]
    |psi|^2 = 0.814
==== e(  12) =     7.05782 eV ==== 
     psi = 0.004*[#   2]+0.004*[#   6]
    |psi|^2 = 0.008
==== e(  13) =     7.72843 eV ==== 
     psi = 0.003*[#   3]+0.003*[#   4]+0.003*[#   7]+0.003*[#   8]+0.001*[#   1]
          +0.001*[#   5]
    |psi|^2 = 0.013
==== e(  14) =     9.98492 eV ==== 
     psi = 0.002*[#   2]+0.002*[#   6]
    |psi|^2 = 0.004
==== e(  15) =    10.84872 eV ==== 
 
    |psi|^2 = 0.005
==== e(  16) =    11.72705 eV ==== 
     psi = 0.231*[#   3]+0.231*[#   4]+0.231*[#   7]+0.231*[#   8]
    |psi|^2 = 0.923

 k =   0.0000000000  0.3247595264  0.0000000000
==== e(   1) =   -20.02441 eV ==== 
     psi = 0.328*[#   1]+0.328*[#   5]+0.081*[#   3]+0.081*[#   4]+0.081*[#   7]
          +0.081*[#   8]
    |psi|^2 = 0.981
==== e(   2) =   -10.62272 eV ==== 
     psi = 0.194*[#   3]+0.194*[#   4]+0.194*[#   7]+0.194*[#   8]+0.108*[#   1]
          +0.108*[#   5]
    |psi|^2 = 0.992
==== e(   3) =    -7.79878 eV ==== 
     psi = 0.492*[#   2]+0.492*[#   6]
    |psi|^2 = 0.984
==== e(   4) =    -7.71909 eV ==== 
     psi = 0.249*[#   3]+0.249*[#   4]+0.249*[#   7]+0.249*[#   8]
    |psi|^2 = 0.997
==== e(   5) =     3.35442 eV ==== 
     psi = 0.006*[#   3]+0.006*[#   4]+0.006*[#   7]+0.006*[#   8]
    |psi|^2 = 0.025
==== e(   6) =     3.86947 eV ==== 
     psi = 0.244*[#   2]+0.244*[#   6]
    |psi|^2 = 0.489
==== e(   7) =     4.13919 eV ==== 
 
    |psi|^2 = 0.002
==== e(   8) =     4.14932 eV ==== 
     psi = 0.223*[#   2]+0.223*[#   6]
    |psi|^2 = 0.445
==== e(   9) =     5.16529 eV ==== 
     psi = 0.012*[#   2]+0.012*[#   6]
    |psi|^2 = 0.024
==== e(  10) =     5.46689 eV ==== 
     psi = 0.131*[#   1]+0.131*[#   5]+0.041*[#   3]+0.041*[#   4]+0.041*[#   7]
          +0.041*[#   8]
    |psi|^2 = 0.427
==== e(  11) =     5.65662 eV ==== 
     psi = 0.116*[#   1]+0.116*[#   5]+0.059*[#   3]+0.059*[#   4]+0.059*[#   7]
          +0.059*[#   8]
    |psi|^2 = 0.469
==== e(  12) =     7.24100 eV ==== 
     psi = 0.004*[#   2]+0.004*[#   6]
    |psi|^2 = 0.007
==== e(  13) =     7.91299 eV ==== 
     psi = 0.002*[#   3]+0.002*[#   4]+0.002*[#   7]+0.002*[#   8]
    |psi|^2 = 0.011
==== e(  14) =    10.16184 eV ==== 
     psi = 0.002*[#   2]+0.002*[#   6]
    |psi|^2 = 0.004
==== e(  15) =    11.03152 eV ==== 
 
    |psi|^2 = 0.005
==== e(  16) =    12.07984 eV ==== 
     psi = 0.231*[#   3]+0.231*[#   4]+0.231*[#   7]+0.231*[#   8]
    |psi|^2 = 0.922

 k =   0.0000000000  0.3367876570  0.0000000000
==== e(   1) =   -19.88699 eV ==== 
     psi = 0.323*[#   1]+0.323*[#   5]+0.084*[#   3]+0.084*[#   4]+0.084*[#   7]
          +0.084*[#   8]
    |psi|^2 = 0.981
==== e(   2) =   -10.89901 eV ==== 
     psi = 0.192*[#   3]+0.192*[#   4]+0.192*[#   7]+0.192*[#   8]+0.112*[#   1]
          +0.112*[#   5]
    |psi|^2 = 0.991
==== e(   3) =    -7.81294 eV ==== 
     psi = 0.249*[#   3]+0.249*[#   4]+0.249*[#   7]+0.249*[#   8]
    |psi|^2 = 0.997
==== e(   4) =    -7.64211 eV ==== 
     psi = 0.493*[#   2]+0.493*[#   6]
    |psi|^2 = 0.986
==== e(   5) =     3.54509 eV ==== 
     psi = 0.005*[#   3]+0.005*[#   4]+0.005*[#   7]+0.005*[#   8]
    |psi|^2 = 0.022
==== e(   6) =     3.67433 eV ==== 
     psi = 0.433*[#   2]+0.433*[#   6]
    |psi|^2 = 0.867
==== e(   7) =     4.25283 eV ==== 
     psi = 0.037*[#   2]+0.037*[#   6]
    |psi|^2 = 0.074
==== e(   8) =     4.33448 eV ==== 
 
    |psi|^2 = 0.002
==== e(   9) =     5.35385 eV ==== 
     psi = 0.008*[#   2]+0.008*[#   6]
    |psi|^2 = 0.015
==== e(  10) =     5.48175 eV ==== 
     psi = 0.229*[#   1]+0.229*[#   5]+0.078*[#   3]+0.078*[#   4]+0.078*[#   7]
          +0.078*[#   8]
    |psi|^2 = 0.770
==== e(  11) =     5.79492 eV ==== 
     psi = 0.027*[#   1]+0.027*[#   5]+0.018*[#   3]+0.018*[#   4]+0.018*[#   7]
          +0.018*[#   8]
    |psi|^2 = 0.128
==== e(  12) =     7.43100 eV ==== 
     psi = 0.003*[#   2]+0.003*[#   6]
    |psi|^2 = 0.006
==== e(  13) =     8.10455 eV ==== 
     psi = 0.002*[#   3]+0.002*[#   4]+0.002*[#   7]+0.002*[#   8]
    |psi|^2 = 0.010
==== e(  14) =    10.34461 eV ==== 
     psi = 0.002*[#   2]+0.002*[#   6]
    |psi|^2 = 0.004
==== e(  15) =    11.22101 eV ==== 
     psi = 0.001*[#   1]+0.001*[#   5]
    |psi|^2 = 0.005
==== e(  16) =    12.43453 eV ==== 
     psi = 0.230*[#   3]+0.230*[#   4]+0.230*[#   7]+0.230*[#   8]
    |psi|^2 = 0.922

 k =   0.0000000000  0.3488157876  0.0000000000
==== e(   1) =   -19.74490 eV ==== 
     psi = 0.317*[#   1]+0.317*[#   5]+0.087*[#   3]+0.087*[#   4]+0.087*[#   7]
          +0.087*[#   8]
    |psi|^2 = 0.981
==== e(   2) =   -11.17501 eV ==== 
     psi = 0.190*[#   3]+0.190*[#   4]+0.190*[#   7]+0.190*[#   8]+0.116*[#   1]
          +0.116*[#   5]
    |psi|^2 = 0.991
==== e(   3) =    -7.90334 eV ==== 
     psi = 0.249*[#   3]+0.249*[#   4]+0.249*[#   7]+0.249*[#   8]
    |psi|^2 = 0.997
==== e(   4) =    -7.48113 eV ==== 
     psi = 0.494*[#   2]+0.494*[#   6]
    |psi|^2 = 0.987
==== e(   5) =     3.40257 eV ==== 
     psi = 0.458*[#   2]+0.458*[#   6]
    |psi|^2 = 0.915
==== e(   6) =     3.74240 eV ==== 
     psi = 0.005*[#   3]+0.005*[#   4]+0.005*[#   7]+0.005*[#   8]
    |psi|^2 = 0.020
==== e(   7) =     4.43720 eV ==== 
     psi = 0.014*[#   2]+0.014*[#   6]
    |psi|^2 = 0.028
==== e(   8) =     4.53668 eV ==== 
 
    |psi|^2 = 0.002
==== e(   9) =     5.45612 eV ==== 
     psi = 0.254*[#   1]+0.254*[#   5]+0.084*[#   3]+0.084*[#   4]+0.084*[#   7]
          +0.084*[#   8]
    |psi|^2 = 0.847
==== e(  10) =     5.55130 eV ==== 
     psi = 0.006*[#   2]+0.006*[#   6]
    |psi|^2 = 0.011
==== e(  11) =     5.98166 eV ==== 
     psi = 0.010*[#   1]+0.010*[#   5]+0.009*[#   3]+0.009*[#   4]+0.009*[#   7]
          +0.009*[#   8]
    |psi|^2 = 0.053
==== e(  12) =     7.62772 eV ==== 
     psi = 0.003*[#   2]+0.003*[#   6]
    |psi|^2 = 0.006
==== e(  13) =     8.30306 eV ==== 
     psi = 0.002*[#   3]+0.002*[#   4]+0.002*[#   7]+0.002*[#   8]
    |psi|^2 = 0.009
==== e(  14) =    10.53302 eV ==== 
     psi = 0.002*[#   2]+0.002*[#   6]
    |psi|^2 = 0.004
==== e(  15) =    11.41714 eV ==== 
     psi = 0.001*[#   1]+0.001*[#   5]
    |psi|^2 = 0.005
==== e(  16) =    12.79013 eV ==== 
     psi = 0.230*[#   3]+0.230*[#   4]+0.230*[#   7]+0.230*[#   8]
    |psi|^2 = 0.922

 k =   0.0000000000  0.3608439182  0.0000000000
==== e(   1) =   -19.59819 eV ==== 
     psi = 0.312*[#   1]+0.312*[#   5]+0.089*[#   3]+0.089*[#   4]+0.089*[#   7]
          +0.089*[#   8]
    |psi|^2 = 0.981
==== e(   2) =   -11.45036 eV ==== 
     psi = 0.188*[#   3]+0.188*[#   4]+0.188*[#   7]+0.188*[#   8]+0.120*[#   1]
          +0.120*[#   5]
    |psi|^2 = 0.991
==== e(   3) =    -7.99008 eV ==== 
     psi = 0.249*[#   3]+0.249*[#   4]+0.249*[#   7]+0.249*[#   8]
    |psi|^2 = 0.997
==== e(   4) =    -7.31612 eV ==== 
     psi = 0.494*[#   2]+0.494*[#   6]
    |psi|^2 = 0.989
==== e(   5) =     3.11949 eV ==== 
     psi = 0.464*[#   2]+0.464*[#   6]
    |psi|^2 = 0.928
==== e(   6) =     3.94622 eV ==== 
     psi = 0.004*[#   3]+0.004*[#   4]+0.004*[#   7]+0.004*[#   8]
    |psi|^2 = 0.018
==== e(   7) =     4.63894 eV ==== 
     psi = 0.008*[#   2]+0.008*[#   6]
    |psi|^2 = 0.017
==== e(   8) =     4.74557 eV ==== 
     psi = 0.001*[#   1]+0.001*[#   5]
    |psi|^2 = 0.003
==== e(   9) =     5.42351 eV ==== 
     psi = 0.266*[#   1]+0.266*[#   5]+0.084*[#   3]+0.084*[#   4]+0.084*[#   7]
          +0.084*[#   8]
    |psi|^2 = 0.870
==== e(  10) =     5.75653 eV ==== 
     psi = 0.005*[#   2]+0.005*[#   6]
    |psi|^2 = 0.009
==== e(  11) =     6.18392 eV ==== 
     psi = 0.005*[#   3]+0.005*[#   4]+0.005*[#   7]+0.005*[#   8]+0.005*[#   1]
          +0.005*[#   5]
    |psi|^2 = 0.031
==== e(  12) =     7.83110 eV ==== 
     psi = 0.003*[#   2]+0.003*[#   6]
    |psi|^2 = 0.005
==== e(  13) =     8.50849 eV ==== 
     psi = 0.002*[#   3]+0.002*[#   4]+0.002*[#   7]+0.002*[#   8]
    |psi|^2 = 0.008
==== e(  14) =    10.72680 eV ==== 
     psi = 0.002*[#   2]+0.002*[#   6]
    |psi|^2 = 0.004
==== e(  15) =    11.61986 eV ==== 
     psi = 0.001*[#   1]+0.001*[#   5]
    |psi|^2 = 0.005
==== e(  16) =    13.14557 eV ==== 
     psi = 0.230*[#   3]+0.230*[#   4]+0.230*[#   7]+0.230*[#   8]
    |psi|^2 = 0.922

 k =   0.0000000000  0.3728720489  0.0000000000
==== e(   1) =   -19.44692 eV ==== 
     psi = 0.307*[#   1]+0.307*[#   5]+0.092*[#   3]+0.092*[#   4]+0.092*[#   7]
          +0.092*[#   8]
    |psi|^2 = 0.982
==== e(   2) =   -11.72471 eV ==== 
     psi = 0.186*[#   3]+0.186*[#   4]+0.186*[#   7]+0.186*[#   8]+0.124*[#   1]
          +0.124*[#   5]
    |psi|^2 = 0.991
==== e(   3) =    -8.07299 eV ==== 
     psi = 0.249*[#   3]+0.249*[#   4]+0.249*[#   7]+0.249*[#   8]
    |psi|^2 = 0.997
==== e(   4) =    -7.14739 eV ==== 
     psi = 0.495*[#   2]+0.495*[#   6]
    |psi|^2 = 0.990
==== e(   5) =     2.83365 eV ==== 
     psi = 0.467*[#   2]+0.467*[#   6]
    |psi|^2 = 0.934
==== e(   6) =     4.15633 eV ==== 
     psi = 0.003*[#   3]+0.003*[#   4]+0.003*[#   7]+0.003*[#   8]+0.001*[#   1]
          +0.001*[#   5]
    |psi|^2 = 0.015
==== e(   7) =     4.85063 eV ==== 
     psi = 0.006*[#   2]+0.006*[#   6]
    |psi|^2 = 0.012
==== e(   8) =     4.96040 eV ==== 
     psi = 0.003*[#   1]+0.003*[#   5]
    |psi|^2 = 0.007
==== e(   9) =     5.39095 eV ==== 
     psi = 0.273*[#   1]+0.273*[#   5]+0.083*[#   3]+0.083*[#   4]+0.083*[#   7]
          +0.083*[#   8]
    |psi|^2 = 0.877
==== e(  10) =     5.96909 eV ==== 
     psi = 0.004*[#   2]+0.004*[#   6]
    |psi|^2 = 0.008
==== e(  11) =     6.39586 eV ==== 
     psi = 0.004*[#   3]+0.004*[#   4]+0.004*[#   7]+0.004*[#   8]+0.003*[#   1]
          +0.003*[#   5]
    |psi|^2 = 0.021
==== e(  12) =     8.04105 eV ==== 
     psi = 0.002*[#   2]+0.002*[#   6]
    |psi|^2 = 0.005
==== e(  13) =     8.72082 eV ==== 
     psi = 0.001*[#   3]+0.001*[#   4]+0.001*[#   7]+0.001*[#   8]
    |psi|^2 = 0.007
==== e(  14) =    10.92561 eV ==== 
     psi = 0.002*[#   2]+0.002*[#   6]
    |psi|^2 = 0.005
==== e(  15) =    11.82909 eV ==== 
     psi = 0.001*[#   1]+0.001*[#   5]
    |psi|^2 = 0.005
==== e(  16) =    13.45372 eV ==== 
     psi = 0.154*[#   1]+0.154*[#   5]+0.054*[#   3]+0.054*[#   4]+0.054*[#   7]
          +0.054*[#   8]
    |psi|^2 = 0.525

 k =   0.0000000000  0.3849001795  0.0000000000
==== e(   1) =   -19.29116 eV ==== 
     psi = 0.302*[#   1]+0.302*[#   5]+0.094*[#   3]+0.094*[#   4]+0.094*[#   7]
          +0.094*[#   8]
    |psi|^2 = 0.982
==== e(   2) =   -11.99773 eV ==== 
     psi = 0.184*[#   3]+0.184*[#   4]+0.184*[#   7]+0.184*[#   8]+0.128*[#   1]
          +0.128*[#   5]
    |psi|^2 = 0.990
==== e(   3) =    -8.15191 eV ==== 
     psi = 0.249*[#   3]+0.249*[#   4]+0.249*[#   7]+0.249*[#   8]
    |psi|^2 = 0.997
==== e(   4) =    -6.97530 eV ==== 
     psi = 0.495*[#   2]+0.495*[#   6]
    |psi|^2 = 0.991
==== e(   5) =     2.54777 eV ==== 
     psi = 0.468*[#   2]+0.468*[#   6]
    |psi|^2 = 0.937
==== e(   6) =     4.37229 eV ==== 
     psi = 0.002*[#   1]+0.002*[#   5]+0.002*[#   3]+0.002*[#   4]+0.002*[#   7]
          +0.002*[#   8]
    |psi|^2 = 0.014
==== e(   7) =     5.07049 eV ==== 
     psi = 0.005*[#   2]+0.005*[#   6]
    |psi|^2 = 0.009
==== e(   8) =     5.17631 eV ==== 
     psi = 0.020*[#   1]+0.020*[#   5]+0.003*[#   3]+0.003*[#   4]+0.003*[#   7]
          +0.003*[#   8]
    |psi|^2 = 0.051
==== e(   9) =     5.36547 eV ==== 
     psi = 0.263*[#   1]+0.263*[#   5]+0.078*[#   3]+0.078*[#   4]+0.078*[#   7]
          +0.078*[#   8]
    |psi|^2 = 0.839
==== e(  10) =     6.18877 eV ==== 
     psi = 0.003*[#   2]+0.003*[#   6]
    |psi|^2 = 0.007
==== e(  11) =     6.61594 eV ==== 
     psi = 0.003*[#   3]+0.003*[#   4]+0.003*[#   7]+0.003*[#   8]+0.002*[#   1]
          +0.002*[#   5]
    |psi|^2 = 0.015
==== e(  12) =     8.25751 eV ==== 
     psi = 0.002*[#   2]+0.002*[#   6]
    |psi|^2 = 0.005
==== e(  13) =     8.94002 eV ==== 
     psi = 0.001*[#   3]+0.001*[#   4]+0.001*[#   7]+0.001*[#   8]
    |psi|^2 = 0.006
==== e(  14) =    11.12897 eV ==== 
     psi = 0.002*[#   2]+0.002*[#   6]
    |psi|^2 = 0.005
==== e(  15) =    12.04471 eV ==== 
     psi = 0.002*[#   1]+0.002*[#   5]
    |psi|^2 = 0.006
==== e(  16) =    13.40770 eV ==== 
     psi = 0.128*[#   1]+0.128*[#   5]+0.046*[#   3]+0.046*[#   4]+0.046*[#   7]
          +0.046*[#   8]
    |psi|^2 = 0.442

 k =   0.0000000000  0.3969283101  0.0000000000
==== e(   1) =   -19.13098 eV ==== 
     psi = 0.298*[#   1]+0.298*[#   5]+0.097*[#   3]+0.097*[#   4]+0.097*[#   7]
          +0.097*[#   8]
    |psi|^2 = 0.982
==== e(   2) =   -12.26911 eV ==== 
     psi = 0.182*[#   3]+0.182*[#   4]+0.182*[#   7]+0.182*[#   8]+0.132*[#   1]
          +0.132*[#   5]
    |psi|^2 = 0.990
==== e(   3) =    -8.22669 eV ==== 
     psi = 0.249*[#   3]+0.249*[#   4]+0.249*[#   7]+0.249*[#   8]
    |psi|^2 = 0.997
==== e(   4) =    -6.80029 eV ==== 
     psi = 0.496*[#   2]+0.496*[#   6]
    |psi|^2 = 0.992
==== e(   5) =     2.26339 eV ==== 
     psi = 0.469*[#   2]+0.469*[#   6]
    |psi|^2 = 0.939
==== e(   6) =     4.59303 eV ==== 
     psi = 0.005*[#   1]+0.005*[#   5]+0.001*[#   3]+0.001*[#   4]+0.001*[#   7]
          +0.001*[#   8]
    |psi|^2 = 0.015
==== e(   7) =     5.29789 eV ==== 
     psi = 0.004*[#   2]+0.004*[#   6]
    |psi|^2 = 0.007
==== e(   8) =     5.30069 eV ==== 
     psi = 0.245*[#   1]+0.245*[#   5]+0.062*[#   3]+0.062*[#   4]+0.062*[#   7]
          +0.062*[#   8]
    |psi|^2 = 0.740
==== e(   9) =     5.44146 eV ==== 
     psi = 0.042*[#   1]+0.042*[#   5]+0.017*[#   3]+0.017*[#   4]+0.017*[#   7]
          +0.017*[#   8]
    |psi|^2 = 0.150
==== e(  10) =     6.41543 eV ==== 
     psi = 0.003*[#   2]+0.003*[#   6]
    |psi|^2 = 0.006
==== e(  11) =     6.84358 eV ==== 
     psi = 0.002*[#   3]+0.002*[#   4]+0.002*[#   7]+0.002*[#   8]+0.001*[#   1]
          +0.001*[#   5]
    |psi|^2 = 0.012
==== e(  12) =     8.48037 eV ==== 
     psi = 0.002*[#   2]+0.002*[#   6]
    |psi|^2 = 0.004
==== e(  13) =     9.16603 eV ==== 
     psi = 0.001*[#   3]+0.001*[#   4]+0.001*[#   7]+0.001*[#   8]
    |psi|^2 = 0.005
==== e(  14) =    11.33619 eV ==== 
     psi = 0.003*[#   2]+0.003*[#   6]
    |psi|^2 = 0.005
==== e(  15) =    12.26648 eV ==== 
     psi = 0.002*[#   1]+0.002*[#   5]
    |psi|^2 = 0.007
==== e(  16) =    13.30508 eV ==== 
     psi = 0.103*[#   1]+0.103*[#   5]+0.038*[#   3]+0.038*[#   4]+0.038*[#   7]
          +0.038*[#   8]
    |psi|^2 = 0.357

 k =   0.0000000000  0.4089564407  0.0000000000
==== e(   1) =   -18.96648 eV ==== 
     psi = 0.293*[#   1]+0.293*[#   5]+0.099*[#   3]+0.099*[#   4]+0.099*[#   7]
          +0.099*[#   8]
    |psi|^2 = 0.982
==== e(   2) =   -12.53854 eV ==== 
     psi = 0.180*[#   3]+0.180*[#   4]+0.180*[#   7]+0.180*[#   8]+0.135*[#   1]
          +0.135*[#   5]
    |psi|^2 = 0.990
==== e(   3) =    -8.29718 eV ==== 
     psi = 0.249*[#   3]+0.249*[#   4]+0.249*[#   7]+0.249*[#   8]
    |psi|^2 = 0.996
==== e(   4) =    -6.62289 eV ==== 
     psi = 0.496*[#   2]+0.496*[#   6]
    |psi|^2 = 0.993
==== e(   5) =     1.98172 eV ==== 
     psi = 0.470*[#   2]+0.470*[#   6]
    |psi|^2 = 0.940
==== e(   6) =     4.81526 eV ==== 
     psi = 0.015*[#   1]+0.015*[#   5]
    |psi|^2 = 0.030
==== e(   7) =     5.29004 eV ==== 
     psi = 0.279*[#   1]+0.279*[#   5]+0.073*[#   3]+0.073*[#   4]+0.073*[#   7]
          +0.073*[#   8]
    |psi|^2 = 0.852
==== e(   8) =     5.53251 eV ==== 
     psi = 0.003*[#   2]+0.003*[#   6]
    |psi|^2 = 0.006
==== e(   9) =     5.66611 eV ==== 
     psi = 0.005*[#   1]+0.005*[#   5]+0.003*[#   3]+0.003*[#   4]+0.003*[#   7]
          +0.003*[#   8]
    |psi|^2 = 0.024
==== e(  10) =     6.64899 eV ==== 
     psi = 0.003*[#   2]+0.003*[#   6]
    |psi|^2 = 0.005
==== e(  11) =     7.07852 eV ==== 
     psi = 0.002*[#   3]+0.002*[#   4]+0.002*[#   7]+0.002*[#   8]
    |psi|^2 = 0.009
==== e(  12) =     8.70954 eV ==== 
     psi = 0.002*[#   2]+0.002*[#   6]
    |psi|^2 = 0.004
==== e(  13) =     9.39884 eV ==== 
 
    |psi|^2 = 0.005
==== e(  14) =    11.54621 eV ==== 
     psi = 0.003*[#   2]+0.003*[#   6]
    |psi|^2 = 0.006
==== e(  15) =    12.49365 eV ==== 
     psi = 0.003*[#   1]+0.003*[#   5]
    |psi|^2 = 0.009
==== e(  16) =    13.14703 eV ==== 
     psi = 0.079*[#   1]+0.079*[#   5]+0.029*[#   3]+0.029*[#   4]+0.029*[#   7]
          +0.029*[#   8]
    |psi|^2 = 0.275

 k =   0.0000000000  0.4209845713  0.0000000000
==== e(   1) =   -18.79777 eV ==== 
     psi = 0.289*[#   1]+0.289*[#   5]+0.101*[#   3]+0.101*[#   4]+0.101*[#   7]
          +0.101*[#   8]
    |psi|^2 = 0.983
==== e(   2) =   -12.80571 eV ==== 
     psi = 0.178*[#   3]+0.178*[#   4]+0.178*[#   7]+0.178*[#   8]+0.138*[#   1]
          +0.138*[#   5]
    |psi|^2 = 0.989
==== e(   3) =    -8.36329 eV ==== 
     psi = 0.249*[#   3]+0.249*[#   4]+0.249*[#   7]+0.249*[#   8]
    |psi|^2 = 0.996
==== e(   4) =    -6.44374 eV ==== 
     psi = 0.497*[#   2]+0.497*[#   6]
    |psi|^2 = 0.994
==== e(   5) =     1.70388 eV ==== 
     psi = 0.471*[#   2]+0.471*[#   6]
    |psi|^2 = 0.942
==== e(   6) =     5.02307 eV ==== 
     psi = 0.062*[#   1]+0.062*[#   5]+0.004*[#   3]+0.004*[#   4]+0.004*[#   7]
          +0.004*[#   8]
    |psi|^2 = 0.140
==== e(   7) =     5.29120 eV ==== 
     psi = 0.241*[#   1]+0.241*[#   5]+0.069*[#   3]+0.069*[#   4]+0.069*[#   7]
          +0.069*[#   8]
    |psi|^2 = 0.756
==== e(   8) =     5.77420 eV ==== 
     psi = 0.003*[#   2]+0.003*[#   6]
    |psi|^2 = 0.005
==== e(   9) =     5.90874 eV ==== 
     psi = 0.002*[#   1]+0.002*[#   3]+0.002*[#   4]+0.002*[#   5]+0.002*[#   7]
          +0.002*[#   8]
    |psi|^2 = 0.011
==== e(  10) =     6.88937 eV ==== 
     psi = 0.002*[#   2]+0.002*[#   6]
    |psi|^2 = 0.005
==== e(  11) =     7.32062 eV ==== 
     psi = 0.002*[#   3]+0.002*[#   4]+0.002*[#   7]+0.002*[#   8]
    |psi|^2 = 0.008
==== e(  12) =     8.94486 eV ==== 
     psi = 0.002*[#   2]+0.002*[#   6]
    |psi|^2 = 0.004
==== e(  13) =     9.63839 eV ==== 
 
    |psi|^2 = 0.004
==== e(  14) =    11.75728 eV ==== 
     psi = 0.003*[#   2]+0.003*[#   6]
    |psi|^2 = 0.006
==== e(  15) =    12.71970 eV ==== 
     psi = 0.008*[#   1]+0.008*[#   5]+0.003*[#   3]+0.003*[#   4]+0.003*[#   7]
          +0.003*[#   8]
    |psi|^2 = 0.026
==== e(  16) =    12.94583 eV ==== 
     psi = 0.054*[#   1]+0.054*[#   5]+0.021*[#   3]+0.021*[#   4]+0.021*[#   7]
          +0.021*[#   8]
    |psi|^2 = 0.191

 k =   0.0000000000  0.4330127019  0.0000000000
==== e(   1) =   -18.62499 eV ==== 
     psi = 0.286*[#   1]+0.286*[#   5]+0.103*[#   3]+0.103*[#   4]+0.103*[#   7]
          +0.103*[#   8]
    |psi|^2 = 0.983
==== e(   2) =   -13.07031 eV ==== 
     psi = 0.177*[#   3]+0.177*[#   4]+0.177*[#   7]+0.177*[#   8]+0.141*[#   1]
          +0.141*[#   5]
    |psi|^2 = 0.989
==== e(   3) =    -8.42488 eV ==== 
     psi = 0.249*[#   3]+0.249*[#   4]+0.249*[#   7]+0.249*[#   8]
    |psi|^2 = 0.996
==== e(   4) =    -6.26361 eV ==== 
     psi = 0.497*[#   2]+0.497*[#   6]
    |psi|^2 = 0.994
==== e(   5) =     1.43106 eV ==== 
     psi = 0.471*[#   2]+0.471*[#   6]
    |psi|^2 = 0.943
==== e(   6) =     5.13844 eV ==== 
     psi = 0.227*[#   1]+0.227*[#   5]+0.036*[#   3]+0.036*[#   4]+0.036*[#   7]
          +0.036*[#   8]
    |psi|^2 = 0.597
==== e(   7) =     5.39164 eV ==== 
     psi = 0.082*[#   1]+0.082*[#   5]+0.034*[#   3]+0.034*[#   4]+0.034*[#   7]
          +0.034*[#   8]
    |psi|^2 = 0.303
==== e(   8) =     6.02284 eV ==== 
     psi = 0.002*[#   2]+0.002*[#   6]
    |psi|^2 = 0.005
==== e(   9) =     6.16005 eV ==== 
     psi = 0.001*[#   3]+0.001*[#   4]+0.001*[#   7]+0.001*[#   8]
    |psi|^2 = 0.007
==== e(  10) =     7.13649 eV ==== 
     psi = 0.002*[#   2]+0.002*[#   6]
    |psi|^2 = 0.004
==== e(  11) =     7.56980 eV ==== 
     psi = 0.001*[#   3]+0.001*[#   4]+0.001*[#   7]+0.001*[#   8]
    |psi|^2 = 0.006
==== e(  12) =     9.18618 eV ==== 
     psi = 0.002*[#   2]+0.002*[#   6]
    |psi|^2 = 0.004
==== e(  13) =     9.88463 eV ==== 
 
    |psi|^2 = 0.004
==== e(  14) =    11.96598 eV ==== 
     psi = 0.004*[#   2]+0.004*[#   6]
    |psi|^2 = 0.008
==== e(  15) =    12.67131 eV ==== 
     psi = 0.047*[#   1]+0.047*[#   5]+0.017*[#   3]+0.017*[#   4]+0.017*[#   7]
          +0.017*[#   8]
    |psi|^2 = 0.162
==== e(  16) =    12.98392 eV ==== 
 
    |psi|^2 = 0.003

 k =   0.0000000000  0.4450408325  0.0000000000
==== e(   1) =   -18.44832 eV ==== 
     psi = 0.282*[#   1]+0.282*[#   5]+0.105*[#   3]+0.105*[#   4]+0.105*[#   7]
          +0.105*[#   8]
    |psi|^2 = 0.983
==== e(   2) =   -13.33201 eV ==== 
     psi = 0.175*[#   3]+0.175*[#   4]+0.175*[#   7]+0.175*[#   8]+0.144*[#   1]
          +0.144*[#   5]
    |psi|^2 = 0.989
==== e(   3) =    -8.48188 eV ==== 
     psi = 0.249*[#   3]+0.249*[#   4]+0.249*[#   7]+0.249*[#   8]
    |psi|^2 = 0.996
==== e(   4) =    -6.08345 eV ==== 
     psi = 0.497*[#   2]+0.497*[#   6]
    |psi|^2 = 0.995
==== e(   5) =     1.16454 eV ==== 
     psi = 0.472*[#   2]+0.472*[#   6]
    |psi|^2 = 0.944
==== e(   6) =     5.14692 eV ==== 
     psi = 0.294*[#   1]+0.294*[#   5]+0.053*[#   3]+0.053*[#   4]+0.053*[#   7]
          +0.053*[#   8]
    |psi|^2 = 0.800
==== e(   7) =     5.60704 eV ==== 
     psi = 0.021*[#   1]+0.021*[#   5]+0.015*[#   3]+0.015*[#   4]+0.015*[#   7]
          +0.015*[#   8]
    |psi|^2 = 0.100
==== e(   8) =     6.27833 eV ==== 
     psi = 0.002*[#   2]+0.002*[#   6]
    |psi|^2 = 0.004
==== e(   9) =     6.41896 eV ==== 
 
    |psi|^2 = 0.005
==== e(  10) =     7.39030 eV ==== 
     psi = 0.002*[#   2]+0.002*[#   6]
    |psi|^2 = 0.004
==== e(  11) =     7.82598 eV ==== 
     psi = 0.001*[#   3]+0.001*[#   4]+0.001*[#   7]+0.001*[#   8]
    |psi|^2 = 0.005
==== e(  12) =     9.43325 eV ==== 
     psi = 0.002*[#   2]+0.002*[#   6]
    |psi|^2 = 0.004
==== e(  13) =    10.13748 eV ==== 
 
    |psi|^2 = 0.004
==== e(  14) =    12.16443 eV ==== 
     psi = 0.005*[#   2]+0.005*[#   6]
    |psi|^2 = 0.010
==== e(  15) =    12.39448 eV ==== 
     psi = 0.035*[#   1]+0.035*[#   5]+0.013*[#   3]+0.013*[#   4]+0.013*[#   7]
          +0.013*[#   8]
    |psi|^2 = 0.121
==== e(  16) =    13.22518 eV ==== 
 
    |psi|^2 = 0.004

 k =   0.0000000000  0.4570689631  0.0000000000
==== e(   1) =   -18.26798 eV ==== 
     psi = 0.279*[#   1]+0.279*[#   5]+0.106*[#   3]+0.106*[#   4]+0.106*[#   7]
          +0.106*[#   8]
    |psi|^2 = 0.984
==== e(   2) =   -13.59041 eV ==== 
     psi = 0.174*[#   3]+0.174*[#   4]+0.174*[#   7]+0.174*[#   8]+0.147*[#   1]
          +0.147*[#   5]
    |psi|^2 = 0.988
==== e(   3) =    -8.53419 eV ==== 
     psi = 0.249*[#   3]+0.249*[#   4]+0.249*[#   7]+0.249*[#   8]
    |psi|^2 = 0.996
==== e(   4) =    -5.90444 eV ==== 
     psi = 0.498*[#   2]+0.498*[#   6]
    |psi|^2 = 0.995
==== e(   5) =     0.90578 eV ==== 
     psi = 0.472*[#   2]+0.472*[#   6]
    |psi|^2 = 0.944
==== e(   6) =     5.13162 eV ==== 
     psi = 0.311*[#   1]+0.311*[#   5]+0.057*[#   3]+0.057*[#   4]+0.057*[#   7]
          +0.057*[#   8]
    |psi|^2 = 0.849
==== e(   7) =     5.85464 eV ==== 
     psi = 0.009*[#   3]+0.009*[#   4]+0.009*[#   7]+0.009*[#   8]+0.008*[#   1]
          +0.008*[#   5]
    |psi|^2 = 0.052
==== e(   8) =     6.54060 eV ==== 
     psi = 0.002*[#   2]+0.002*[#   6]
    |psi|^2 = 0.004
==== e(   9) =     6.68519 eV ==== 
 
    |psi|^2 = 0.003
==== e(  10) =     7.65071 eV ==== 
     psi = 0.002*[#   2]+0.002*[#   6]
    |psi|^2 = 0.004
==== e(  11) =     8.08911 eV ==== 
 
    |psi|^2 = 0.004
==== e(  12) =     9.68577 eV ==== 
     psi = 0.002*[#   2]+0.002*[#   6]
    |psi|^2 = 0.004
==== e(  13) =    10.39684 eV ==== 
 
    |psi|^2 = 0.004
==== e(  14) =    12.09086 eV ==== 
     psi = 0.026*[#   1]+0.026*[#   5]+0.009*[#   3]+0.009*[#   4]+0.009*[#   7]
          +0.009*[#   8]
    |psi|^2 = 0.089
==== e(  15) =    12.32854 eV ==== 
     psi = 0.007*[#   2]+0.007*[#   6]
    |psi|^2 = 0.013
==== e(  16) =    13.14123 eV ==== 
     psi = 0.002*[#   2]+0.002*[#   6]
    |psi|^2 = 0.005

 k =   0.0000000000  0.4690970937  0.0000000000
==== e(   1) =   -18.08429 eV ==== 
     psi = 0.277*[#   1]+0.277*[#   5]+0.108*[#   3]+0.108*[#   4]+0.108*[#   7]
          +0.108*[#   8]
    |psi|^2 = 0.984
==== e(   2) =   -13.84510 eV ==== 
     psi = 0.173*[#   3]+0.173*[#   4]+0.173*[#   7]+0.173*[#   8]+0.149*[#   1]
          +0.149*[#   5]
    |psi|^2 = 0.988
==== e(   3) =    -8.58173 eV ==== 
     psi = 0.249*[#   3]+0.249*[#   4]+0.249*[#   7]+0.249*[#   8]
    |psi|^2 = 0.996
==== e(   4) =    -5.72802 eV ==== 
     psi = 0.498*[#   2]+0.498*[#   6]
    |psi|^2 = 0.996
==== e(   5) =     0.65649 eV ==== 
     psi = 0.473*[#   2]+0.473*[#   6]
    |psi|^2 = 0.945
==== e(   6) =     5.11241 eV ==== 
     psi = 0.319*[#   1]+0.319*[#   5]+0.057*[#   3]+0.057*[#   4]+0.057*[#   7]
          +0.057*[#   8]
    |psi|^2 = 0.867
==== e(   7) =     6.11475 eV ==== 
     psi = 0.006*[#   3]+0.006*[#   4]+0.006*[#   7]+0.006*[#   8]+0.004*[#   1]
          +0.004*[#   5]
    |psi|^2 = 0.034
==== e(   8) =     6.80956 eV ==== 
     psi = 0.002*[#   2]+0.002*[#   6]
    |psi|^2 = 0.004
==== e(   9) =     6.95861 eV ==== 
 
    |psi|^2 = 0.003
==== e(  10) =     7.91763 eV ==== 
     psi = 0.002*[#   2]+0.002*[#   6]
    |psi|^2 = 0.004
==== e(  11) =     8.35914 eV ==== 
 
    |psi|^2 = 0.004
==== e(  12) =     9.94321 eV ==== 
     psi = 0.002*[#   2]+0.002*[#   6]
    |psi|^2 = 0.005
==== e(  13) =    10.66249 eV ==== 
 
    |psi|^2 = 0.004
==== e(  14) =    11.77163 eV ==== 
     psi = 0.020*[#   1]+0.020*[#   5]+0.007*[#   3]+0.007*[#   4]+0.007*[#   7]
          +0.007*[#   8]
    |psi|^2 = 0.067
==== e(  15) =    12.37207 eV ==== 
     psi = 0.009*[#   2]+0.009*[#   6]
    |psi|^2 = 0.017
==== e(  16) =    12.96376 eV ==== 
 
    |psi|^2 = 0.000

 k =   0.0000000000  0.4811252243  0.0000000000
==== e(   1) =   -17.89769 eV ==== 
     psi = 0.275*[#   1]+0.275*[#   5]+0.109*[#   3]+0.109*[#   4]+0.109*[#   7]
          +0.109*[#   8]
    |psi|^2 = 0.985
==== e(   2) =   -14.09551 eV ==== 
     psi = 0.172*[#   3]+0.172*[#   4]+0.172*[#   7]+0.172*[#   8]+0.150*[#   1]
          +0.150*[#   5]
    |psi|^2 = 0.987
==== e(   3) =    -8.62444 eV ==== 
     psi = 0.249*[#   3]+0.249*[#   4]+0.249*[#   7]+0.249*[#   8]
    |psi|^2 = 0.996
==== e(   4) =    -5.55601 eV ==== 
     psi = 0.498*[#   2]+0.498*[#   6]
    |psi|^2 = 0.996
==== e(   5) =     0.41871 eV ==== 
     psi = 0.473*[#   2]+0.473*[#   6]
    |psi|^2 = 0.946
==== e(   6) =     5.09326 eV ==== 
     psi = 0.325*[#   1]+0.325*[#   5]+0.057*[#   3]+0.057*[#   4]+0.057*[#   7]
          +0.057*[#   8]
    |psi|^2 = 0.876
==== e(   7) =     6.38346 eV ==== 
     psi = 0.005*[#   3]+0.005*[#   4]+0.005*[#   7]+0.005*[#   8]+0.002*[#   1]
          +0.002*[#   5]
    |psi|^2 = 0.025
==== e(   8) =     7.08513 eV ==== 
     psi = 0.002*[#   2]+0.002*[#   6]
    |psi|^2 = 0.004
==== e(   9) =     7.23918 eV ==== 
 
    |psi|^2 = 0.002
==== e(  10) =     8.19096 eV ==== 
     psi = 0.002*[#   2]+0.002*[#   6]
    |psi|^2 = 0.003
==== e(  11) =     8.63602 eV ==== 
 
    |psi|^2 = 0.003
==== e(  12) =    10.20470 eV ==== 
     psi = 0.003*[#   2]+0.003*[#   6]
    |psi|^2 = 0.005
==== e(  13) =    10.93348 eV ==== 
     psi = 0.001*[#   1]+0.001*[#   5]
    |psi|^2 = 0.005
==== e(  14) =    11.44366 eV ==== 
     psi = 0.015*[#   1]+0.015*[#   5]+0.005*[#   3]+0.005*[#   4]+0.005*[#   7]
          +0.005*[#   8]
    |psi|^2 = 0.049
==== e(  15) =    12.19352 eV ==== 
     psi = 0.007*[#   2]+0.007*[#   6]
    |psi|^2 = 0.014
==== e(  16) =    12.68146 eV ==== 
     psi = 0.001*[#   1]+0.001*[#   5]
    |psi|^2 = 0.005

 k =   0.0000000000  0.4931533549  0.0000000000
==== e(   1) =   -17.70882 eV ==== 
     psi = 0.274*[#   1]+0.274*[#   5]+0.110*[#   3]+0.110*[#   4]+0.110*[#   7]
          +0.110*[#   8]
    |psi|^2 = 0.986
==== e(   2) =   -14.34092 eV ==== 
[...]
==== e(   8) =    10.60326 eV ==== 
     psi = 0.156*[#   1]+0.156*[#   5]+0.049*[#   3]+0.049*[#   4]+0.049*[#   7]
          +0.049*[#   8]
    |psi|^2 = 0.509
==== e(   9) =    10.98705 eV ==== 
     psi = 0.053*[#   1]+0.053*[#   5]+0.025*[#   3]+0.025*[#   4]+0.025*[#   7]
          +0.025*[#   8]
    |psi|^2 = 0.206
==== e(  10) =    11.16340 eV ==== 
     psi = 0.005*[#   1]+0.005*[#   5]+0.004*[#   3]+0.004*[#   4]+0.004*[#   7]
          +0.004*[#   8]
    |psi|^2 = 0.026
==== e(  11) =    11.18263 eV ==== 
 
    |psi|^2 = 0.000
==== e(  12) =    12.24544 eV ==== 
 
    |psi|^2 = 0.000
==== e(  13) =    12.35341 eV ==== 
     psi = 0.011*[#   1]+0.011*[#   5]+0.005*[#   3]+0.005*[#   4]+0.005*[#   7]
          +0.005*[#   8]
    |psi|^2 = 0.040
==== e(  14) =    12.75879 eV ==== 
     psi = 0.010*[#   1]+0.010*[#   5]+0.005*[#   3]+0.005*[#   4]+0.005*[#   7]
          +0.005*[#   8]
    |psi|^2 = 0.040
==== e(  15) =    12.85400 eV ==== 
 
    |psi|^2 = 0.000
==== e(  16) =    13.31034 eV ==== 
     psi = 0.035*[#   1]+0.035*[#   5]+0.016*[#   3]+0.016*[#   4]+0.016*[#   7]
          +0.016*[#   8]
    |psi|^2 = 0.135

 k =   0.3020833333  0.5593080733  0.0000000000
==== e(   1) =   -15.37128 eV ==== 
     psi = 0.242*[#   1]+0.242*[#   5]+0.127*[#   3]+0.127*[#   4]+0.127*[#   7]
          +0.127*[#   8]
    |psi|^2 = 0.993
==== e(   2) =   -14.65559 eV ==== 
     psi = 0.214*[#   1]+0.214*[#   5]+0.141*[#   3]+0.141*[#   4]+0.141*[#   7]
          +0.141*[#   8]
    |psi|^2 = 0.993
==== e(   3) =   -12.76564 eV ==== 
     psi = 0.240*[#   3]+0.240*[#   4]+0.240*[#   7]+0.240*[#   8]+0.011*[#   1]
          +0.011*[#   5]
    |psi|^2 = 0.982
==== e(   4) =    -2.86040 eV ==== 
     psi = 0.497*[#   2]+0.497*[#   6]
    |psi|^2 = 0.995
==== e(   5) =    -1.85875 eV ==== 
     psi = 0.496*[#   2]+0.496*[#   6]
    |psi|^2 = 0.992
==== e(   6) =     8.30598 eV ==== 
 
    |psi|^2 = 0.001
==== e(   7) =    10.09015 eV ==== 
     psi = 0.045*[#   1]+0.045*[#   5]+0.013*[#   3]+0.013*[#   4]+0.013*[#   7]
          +0.013*[#   8]
    |psi|^2 = 0.143
==== e(   8) =    10.55097 eV ==== 
     psi = 0.137*[#   1]+0.137*[#   5]+0.043*[#   3]+0.043*[#   4]+0.043*[#   7]
          +0.043*[#   8]
    |psi|^2 = 0.446
==== e(   9) =    10.98752 eV ==== 
     psi = 0.048*[#   1]+0.048*[#   5]+0.023*[#   3]+0.023*[#   4]+0.023*[#   7]
          +0.023*[#   8]
    |psi|^2 = 0.188
==== e(  10) =    11.45717 eV ==== 
 
    |psi|^2 = 0.003
==== e(  11) =    11.47610 eV ==== 
 
    |psi|^2 = 0.000
==== e(  12) =    12.37653 eV ==== 
 
    |psi|^2 = 0.000
==== e(  13) =    12.41798 eV ==== 
     psi = 0.012*[#   1]+0.012*[#   5]+0.006*[#   3]+0.006*[#   4]+0.006*[#   7]
          +0.006*[#   8]
    |psi|^2 = 0.048
==== e(  14) =    12.61586 eV ==== 
     psi = 0.016*[#   1]+0.016*[#   5]+0.007*[#   3]+0.007*[#   4]+0.007*[#   7]
          +0.007*[#   8]
    |psi|^2 = 0.062
==== e(  15) =    12.69229 eV ==== 
 
    |psi|^2 = 0.000
==== e(  16) =    13.21545 eV ==== 
     psi = 0.052*[#   1]+0.052*[#   5]+0.024*[#   3]+0.024*[#   4]+0.024*[#   7]
          +0.024*[#   8]
    |psi|^2 = 0.201

 k =   0.3020833333  0.5713362039  0.0000000000
==== e(   1) =   -15.27419 eV ==== 
     psi = 0.245*[#   1]+0.245*[#   5]+0.126*[#   3]+0.126*[#   4]+0.126*[#   7]
          +0.126*[#   8]
    |psi|^2 = 0.993
==== e(   2) =   -14.74196 eV ==== 
     psi = 0.212*[#   1]+0.212*[#   5]+0.142*[#   3]+0.142*[#   4]+0.142*[#   7]
          +0.142*[#   8]
    |psi|^2 = 0.992
==== e(   3) =   -12.78707 eV ==== 
     psi = 0.240*[#   3]+0.240*[#   4]+0.240*[#   7]+0.240*[#   8]+0.010*[#   1]
          +0.010*[#   5]
    |psi|^2 = 0.982
==== e(   4) =    -2.78138 eV ==== 
     psi = 0.497*[#   2]+0.497*[#   6]
    |psi|^2 = 0.995
==== e(   5) =    -1.93726 eV ==== 
     psi = 0.496*[#   2]+0.496*[#   6]
    |psi|^2 = 0.992
==== e(   6) =     8.29880 eV ==== 
 
    |psi|^2 = 0.001
==== e(   7) =    10.26952 eV ==== 
     psi = 0.061*[#   1]+0.061*[#   5]+0.019*[#   3]+0.019*[#   4]+0.019*[#   7]
          +0.019*[#   8]
    |psi|^2 = 0.196
==== e(   8) =    10.46834 eV ==== 
     psi = 0.114*[#   1]+0.114*[#   5]+0.035*[#   3]+0.035*[#   4]+0.035*[#   7]
          +0.035*[#   8]
    |psi|^2 = 0.370
==== e(   9) =    10.96505 eV ==== 
     psi = 0.045*[#   1]+0.045*[#   5]+0.021*[#   3]+0.021*[#   4]+0.021*[#   7]
          +0.021*[#   8]
    |psi|^2 = 0.175
==== e(  10) =    11.74603 eV ==== 
 
    |psi|^2 = 0.000
==== e(  11) =    11.77526 eV ==== 
     psi = 0.003*[#   1]+0.003*[#   5]+0.001*[#   3]+0.001*[#   4]+0.001*[#   7]
          +0.001*[#   8]
    |psi|^2 = 0.011
==== e(  12) =    12.10092 eV ==== 
     psi = 0.005*[#   1]+0.005*[#   5]+0.002*[#   3]+0.002*[#   4]+0.002*[#   7]
          +0.002*[#   8]
    |psi|^2 = 0.019
==== e(  13) =    12.17711 eV ==== 
 
    |psi|^2 = 0.000
==== e(  14) =    12.79896 eV ==== 
     psi = 0.047*[#   1]+0.047*[#   5]+0.022*[#   3]+0.022*[#   4]+0.022*[#   7]
          +0.022*[#   8]
    |psi|^2 = 0.182
==== e(  15) =    12.87240 eV ==== 
 
    |psi|^2 = 0.000
==== e(  16) =    13.10141 eV ==== 
     psi = 0.029*[#   1]+0.029*[#   5]+0.013*[#   3]+0.013*[#   4]+0.013*[#   7]
          +0.013*[#   8]
    |psi|^2 = 0.112

 k =   0.3125000000  0.5412658774  0.0000000000
==== e(   1) =   -15.51141 eV ==== 
     psi = 0.240*[#   1]+0.240*[#   5]+0.128*[#   3]+0.128*[#   4]+0.128*[#   7]
          +0.128*[#   8]
    |psi|^2 = 0.992
==== e(   2) =   -14.51858 eV ==== 
     psi = 0.218*[#   1]+0.218*[#   5]+0.140*[#   3]+0.140*[#   4]+0.140*[#   7]
          +0.140*[#   8]
    |psi|^2 = 0.994
==== e(   3) =   -12.74583 eV ==== 
     psi = 0.241*[#   3]+0.241*[#   4]+0.241*[#   7]+0.241*[#   8]+0.010*[#   1]
          +0.010*[#   5]
    |psi|^2 = 0.982
==== e(   4) =    -2.97513 eV ==== 
     psi = 0.497*[#   2]+0.497*[#   6]
    |psi|^2 = 0.995
==== e(   5) =    -1.74305 eV ==== 
     psi = 0.496*[#   2]+0.496*[#   6]
    |psi|^2 = 0.992
==== e(   6) =     8.31232 eV ==== 
 
    |psi|^2 = 0.000
==== e(   7) =     9.86655 eV ==== 
     psi = 0.031*[#   1]+0.031*[#   5]+0.009*[#   3]+0.009*[#   4]+0.009*[#   7]
          +0.009*[#   8]
    |psi|^2 = 0.097
==== e(   8) =    10.63369 eV ==== 
     psi = 0.155*[#   1]+0.155*[#   5]+0.049*[#   3]+0.049*[#   4]+0.049*[#   7]
          +0.049*[#   8]
    |psi|^2 = 0.504
==== e(   9) =    11.01126 eV ==== 
     psi = 0.051*[#   1]+0.051*[#   5]+0.024*[#   3]+0.024*[#   4]+0.024*[#   7]
          +0.024*[#   8]
    |psi|^2 = 0.198
==== e(  10) =    11.17065 eV ==== 
     psi = 0.010*[#   1]+0.010*[#   5]+0.006*[#   3]+0.006*[#   4]+0.006*[#   7]
          +0.006*[#   8]
    |psi|^2 = 0.044
==== e(  11) =    11.18066 eV ==== 
 
    |psi|^2 = 0.000
==== e(  12) =    12.25459 eV ==== 
 
    |psi|^2 = 0.000
==== e(  13) =    12.35444 eV ==== 
     psi = 0.009*[#   1]+0.009*[#   5]+0.004*[#   3]+0.004*[#   4]+0.004*[#   7]
          +0.004*[#   8]
    |psi|^2 = 0.033
==== e(  14) =    13.01341 eV ==== 
 
    |psi|^2 = 0.000
==== e(  15) =    13.02064 eV ==== 
     psi = 0.024*[#   1]+0.024*[#   5]+0.011*[#   3]+0.011*[#   4]+0.011*[#   7]
          +0.011*[#   8]
    |psi|^2 = 0.092
==== e(  16) =    13.07730 eV ==== 
     psi = 0.011*[#   1]+0.011*[#   5]+0.006*[#   3]+0.006*[#   4]+0.006*[#   7]
          +0.006*[#   8]
    |psi|^2 = 0.047

 k =   0.3125000000  0.5532940080  0.0000000000
==== e(   1) =   -15.35623 eV ==== 
     psi = 0.240*[#   1]+0.240*[#   5]+0.128*[#   3]+0.128*[#   4]+0.128*[#   7]
          +0.128*[#   8]
    |psi|^2 = 0.993
==== e(   2) =   -14.63647 eV ==== 
     psi = 0.221*[#   1]+0.221*[#   5]+0.138*[#   3]+0.138*[#   4]+0.138*[#   7]
          +0.138*[#   8]
    |psi|^2 = 0.994
==== e(   3) =   -12.80946 eV ==== 
     psi = 0.242*[#   3]+0.242*[#   4]+0.242*[#   7]+0.242*[#   8]+0.007*[#   1]
          +0.007*[#   5]
    |psi|^2 = 0.982
==== e(   4) =    -2.81857 eV ==== 
     psi = 0.497*[#   2]+0.497*[#   6]
    |psi|^2 = 0.995
==== e(   5) =    -1.89708 eV ==== 
     psi = 0.496*[#   2]+0.496*[#   6]
    |psi|^2 = 0.992
==== e(   6) =     8.29214 eV ==== 
 
    |psi|^2 = 0.000
==== e(   7) =    10.08692 eV ==== 
     psi = 0.044*[#   1]+0.044*[#   5]+0.013*[#   3]+0.013*[#   4]+0.013*[#   7]
          +0.013*[#   8]
    |psi|^2 = 0.139
==== e(   8) =    10.60882 eV ==== 
     psi = 0.139*[#   1]+0.139*[#   5]+0.044*[#   3]+0.044*[#   4]+0.044*[#   7]
          +0.044*[#   8]
    |psi|^2 = 0.455
==== e(   9) =    11.05617 eV ==== 
     psi = 0.044*[#   1]+0.044*[#   5]+0.022*[#   3]+0.022*[#   4]+0.022*[#   7]
          +0.022*[#   8]
    |psi|^2 = 0.176
==== e(  10) =    11.45331 eV ==== 
 
    |psi|^2 = 0.001
==== e(  11) =    11.47538 eV ==== 
 
    |psi|^2 = 0.000
==== e(  12) =    12.50098 eV ==== 
 
    |psi|^2 = 0.000
==== e(  13) =    12.58684 eV ==== 
     psi = 0.024*[#   1]+0.024*[#   5]+0.011*[#   3]+0.011*[#   4]+0.011*[#   7]
          +0.011*[#   8]
    |psi|^2 = 0.090
==== e(  14) =    12.74697 eV ==== 
     psi = 0.008*[#   1]+0.008*[#   5]+0.004*[#   3]+0.004*[#   4]+0.004*[#   7]
          +0.004*[#   8]
    |psi|^2 = 0.032
==== e(  15) =    12.79525 eV ==== 
 
    |psi|^2 = 0.000
==== e(  16) =    13.03353 eV ==== 
     psi = 0.017*[#   1]+0.017*[#   5]+0.008*[#   3]+0.008*[#   4]+0.008*[#   7]
          +0.008*[#   8]
    |psi|^2 = 0.067

 k =   0.3125000000  0.5653221386  0.0000000000
==== e(   1) =   -15.22480 eV ==== 
     psi = 0.240*[#   1]+0.240*[#   5]+0.128*[#   3]+0.128*[#   4]+0.128*[#   7]
          +0.128*[#   8]
    |psi|^2 = 0.993
==== e(   2) =   -14.74528 eV ==== 
     psi = 0.222*[#   1]+0.222*[#   5]+0.137*[#   3]+0.137*[#   4]+0.137*[#   7]
          +0.137*[#   8]
    |psi|^2 = 0.993
==== e(   3) =   -12.84792 eV ==== 
     psi = 0.243*[#   3]+0.243*[#   4]+0.243*[#   7]+0.243*[#   8]+0.005*[#   1]
          +0.005*[#   5]
    |psi|^2 = 0.982
==== e(   4) =    -2.69119 eV ==== 
     psi = 0.497*[#   2]+0.497*[#   6]
    |psi|^2 = 0.995
==== e(   5) =    -2.02290 eV ==== 
     psi = 0.496*[#   2]+0.496*[#   6]
    |psi|^2 = 0.992
==== e(   6) =     8.27936 eV ==== 
 
    |psi|^2 = 0.000
==== e(   7) =    10.27476 eV ==== 
     psi = 0.061*[#   1]+0.061*[#   5]+0.019*[#   3]+0.019*[#   4]+0.019*[#   7]
          +0.019*[#   8]
    |psi|^2 = 0.196
==== e(   8) =    10.55655 eV ==== 
     psi = 0.121*[#   1]+0.121*[#   5]+0.038*[#   3]+0.038*[#   4]+0.038*[#   7]
          +0.038*[#   8]
    |psi|^2 = 0.396
==== e(   9) =    11.05136 eV ==== 
     psi = 0.031*[#   1]+0.031*[#   5]+0.016*[#   3]+0.016*[#   4]+0.016*[#   7]
          +0.016*[#   8]
    |psi|^2 = 0.124
==== e(  10) =    11.76677 eV ==== 
     psi = 0.002*[#   1]+0.002*[#   5]
    |psi|^2 = 0.008
==== e(  11) =    11.76705 eV ==== 
 
    |psi|^2 = 0.000
==== e(  12) =    12.40716 eV ==== 
     psi = 0.010*[#   1]+0.010*[#   5]+0.004*[#   3]+0.004*[#   4]+0.004*[#   7]
          +0.004*[#   8]
    |psi|^2 = 0.036
==== e(  13) =    12.43138 eV ==== 
 
    |psi|^2 = 0.000
==== e(  14) =    12.81253 eV ==== 
     psi = 0.037*[#   1]+0.037*[#   5]+0.017*[#   3]+0.017*[#   4]+0.017*[#   7]
          +0.017*[#   8]
    |psi|^2 = 0.144
==== e(  15) =    12.84238 eV ==== 
 
    |psi|^2 = 0.000
==== e(  16) =    13.01197 eV ==== 
     psi = 0.026*[#   1]+0.026*[#   5]+0.012*[#   3]+0.012*[#   4]+0.012*[#   7]
          +0.012*[#   8]
    |psi|^2 = 0.098

 k =   0.3125000000  0.5773502692  0.0000000000
==== e(   1) =   -15.16329 eV ==== 
     psi = 0.242*[#   1]+0.242*[#   5]+0.127*[#   3]+0.127*[#   4]+0.127*[#   7]
          +0.127*[#   8]
    |psi|^2 = 0.994
==== e(   2) =   -14.79922 eV ==== 
     psi = 0.221*[#   1]+0.221*[#   5]+0.138*[#   3]+0.138*[#   4]+0.138*[#   7]
          +0.138*[#   8]
    |psi|^2 = 0.993
==== e(   3) =   -12.86078 eV ==== 
     psi = 0.243*[#   3]+0.243*[#   4]+0.243*[#   7]+0.243*[#   8]+0.005*[#   1]
          +0.005*[#   5]
    |psi|^2 = 0.982
==== e(   4) =    -2.63617 eV ==== 
     psi = 0.497*[#   2]+0.497*[#   6]
    |psi|^2 = 0.995
==== e(   5) =    -2.07740 eV ==== 
     psi = 0.496*[#   2]+0.496*[#   6]
    |psi|^2 = 0.993
==== e(   6) =     8.27499 eV ==== 
 
    |psi|^2 = 0.000
==== e(   7) =    10.38084 eV ==== 
     psi = 0.073*[#   1]+0.073*[#   5]+0.023*[#   3]+0.023*[#   4]+0.023*[#   7]
          +0.023*[#   8]
    |psi|^2 = 0.239
==== e(   8) =    10.50032 eV ==== 
     psi = 0.108*[#   1]+0.108*[#   5]+0.034*[#   3]+0.034*[#   4]+0.034*[#   7]
          +0.034*[#   8]
    |psi|^2 = 0.351
==== e(   9) =    11.04424 eV ==== 
     psi = 0.026*[#   1]+0.026*[#   5]+0.013*[#   3]+0.013*[#   4]+0.013*[#   7]
          +0.013*[#   8]
    |psi|^2 = 0.106
==== e(  10) =    11.96671 eV ==== 
 
    |psi|^2 = 0.000
==== e(  11) =    12.06937 eV ==== 
     psi = 0.009*[#   1]+0.009*[#   5]+0.004*[#   3]+0.004*[#   4]+0.004*[#   7]
          +0.004*[#   8]
    |psi|^2 = 0.032
==== e(  12) =    12.10529 eV ==== 
 
    |psi|^2 = 0.003
==== e(  13) =    12.24376 eV ==== 
 
    |psi|^2 = 0.000
==== e(  14) =    12.92120 eV ==== 
     psi = 0.063*[#   1]+0.063*[#   5]+0.030*[#   3]+0.030*[#   4]+0.030*[#   7]
          +0.030*[#   8]
    |psi|^2 = 0.246
==== e(  15) =    12.98118 eV ==== 
     psi = 0.030*[#   1]+0.030*[#   5]+0.013*[#   3]+0.013*[#   4]+0.013*[#   7]
          +0.013*[#   8]
    |psi|^2 = 0.114
==== e(  16) =    13.01877 eV ==== 
 
    |psi|^2 = 0.000

 k =   0.3229166667  0.5593080733  0.0000000000
==== e(   1) =   -15.20796 eV ==== 
     psi = 0.238*[#   1]+0.238*[#   5]+0.129*[#   3]+0.129*[#   4]+0.129*[#   7]
          +0.129*[#   8]
    |psi|^2 = 0.993
==== e(   2) =   -14.74610 eV ==== 
     psi = 0.226*[#   1]+0.226*[#   5]+0.136*[#   3]+0.136*[#   4]+0.136*[#   7]
          +0.136*[#   8]
    |psi|^2 = 0.994
==== e(   3) =   -12.86886 eV ==== 
     psi = 0.244*[#   3]+0.244*[#   4]+0.244*[#   7]+0.244*[#   8]+0.003*[#   1]
          +0.003*[#   5]
    |psi|^2 = 0.981
==== e(   4) =    -2.65541 eV ==== 
     psi = 0.497*[#   2]+0.497*[#   6]
    |psi|^2 = 0.994
==== e(   5) =    -2.05716 eV ==== 
     psi = 0.496*[#   2]+0.496*[#   6]
    |psi|^2 = 0.993
==== e(   6) =     8.27281 eV ==== 
 
    |psi|^2 = 0.000
==== e(   7) =    10.27532 eV ==== 
     psi = 0.060*[#   1]+0.060*[#   5]+0.019*[#   3]+0.019*[#   4]+0.019*[#   7]
          +0.019*[#   8]
    |psi|^2 = 0.195
==== e(   8) =    10.58822 eV ==== 
     psi = 0.125*[#   1]+0.125*[#   5]+0.040*[#   3]+0.040*[#   4]+0.040*[#   7]
          +0.040*[#   8]
    |psi|^2 = 0.409
==== e(   9) =    11.08188 eV ==== 
     psi = 0.025*[#   1]+0.025*[#   5]+0.013*[#   3]+0.013*[#   4]+0.013*[#   7]
          +0.013*[#   8]
    |psi|^2 = 0.102
==== e(  10) =    11.76405 eV ==== 
     psi = 0.002*[#   1]+0.002*[#   5]
    |psi|^2 = 0.007
==== e(  11) =    11.77101 eV ==== 
 
    |psi|^2 = 0.000
==== e(  12) =    12.64368 eV ==== 
 
    |psi|^2 = 0.000
==== e(  13) =    12.69564 eV ==== 
     psi = 0.018*[#   1]+0.018*[#   5]+0.008*[#   3]+0.008*[#   4]+0.008*[#   7]
          +0.008*[#   8]
    |psi|^2 = 0.067
==== e(  14) =    12.70069 eV ==== 
     psi = 0.025*[#   1]+0.025*[#   5]+0.012*[#   3]+0.012*[#   4]+0.012*[#   7]
          +0.012*[#   8]
    |psi|^2 = 0.097
==== e(  15) =    12.71538 eV ==== 
 
    |psi|^2 = 0.000
==== e(  16) =    12.86296 eV ==== 
     psi = 0.016*[#   1]+0.016*[#   5]+0.007*[#   3]+0.007*[#   4]+0.007*[#   7]
          +0.007*[#   8]
    |psi|^2 = 0.060

 k =   0.3229166667  0.5713362039  0.0000000000
==== e(   1) =   -15.08745 eV ==== 
     psi = 0.238*[#   1]+0.238*[#   5]+0.129*[#   3]+0.129*[#   4]+0.129*[#   7]
          +0.129*[#   8]
    |psi|^2 = 0.993
==== e(   2) =   -14.84686 eV ==== 
     psi = 0.228*[#   1]+0.228*[#   5]+0.134*[#   3]+0.134*[#   4]+0.134*[#   7]
          +0.134*[#   8]
    |psi|^2 = 0.994
==== e(   3) =   -12.89903 eV ==== 
     psi = 0.245*[#   3]+0.245*[#   4]+0.245*[#   7]+0.245*[#   8]+0.001*[#   1]
          +0.001*[#   5]
    |psi|^2 = 0.981
==== e(   4) =    -2.52266 eV ==== 
     psi = 0.497*[#   2]+0.497*[#   6]
    |psi|^2 = 0.994
==== e(   5) =    -2.18835 eV ==== 
     psi = 0.497*[#   2]+0.497*[#   6]
    |psi|^2 = 0.993
==== e(   6) =     8.26285 eV ==== 
 
    |psi|^2 = 0.000
==== e(   7) =    10.41540 eV ==== 
     psi = 0.080*[#   1]+0.080*[#   5]+0.025*[#   3]+0.025*[#   4]+0.025*[#   7]
          +0.025*[#   8]
    |psi|^2 = 0.260
==== e(   8) =    10.54282 eV ==== 
     psi = 0.110*[#   1]+0.110*[#   5]+0.035*[#   3]+0.035*[#   4]+0.035*[#   7]
          +0.035*[#   8]
    |psi|^2 = 0.360
==== e(   9) =    11.08508 eV ==== 
     psi = 0.010*[#   1]+0.010*[#   5]+0.007*[#   3]+0.007*[#   4]+0.007*[#   7]
          +0.007*[#   8]
    |psi|^2 = 0.047
==== e(  10) =    12.05128 eV ==== 
 
    |psi|^2 = 0.000
==== e(  11) =    12.07994 eV ==== 
     psi = 0.005*[#   1]+0.005*[#   5]+0.002*[#   3]+0.002*[#   4]+0.002*[#   7]
          +0.002*[#   8]
    |psi|^2 = 0.018
==== e(  12) =    12.39860 eV ==== 
     psi = 0.009*[#   1]+0.009*[#   5]+0.004*[#   3]+0.004*[#   4]+0.004*[#   7]
          +0.004*[#   8]
    |psi|^2 = 0.032
==== e(  13) =    12.41460 eV ==== 
 
    |psi|^2 = 0.000
==== e(  14) =    12.70407 eV ==== 
     psi = 0.016*[#   1]+0.016*[#   5]+0.007*[#   3]+0.007*[#   4]+0.007*[#   7]
          +0.007*[#   8]
    |psi|^2 = 0.060
==== e(  15) =    12.80220 eV ==== 
 
    |psi|^2 = 0.000
==== e(  16) =    12.98247 eV ==== 
     psi = 0.057*[#   1]+0.057*[#   5]+0.027*[#   3]+0.027*[#   4]+0.027*[#   7]
          +0.027*[#   8]
    |psi|^2 = 0.220

 k =   0.3333333333  0.5773502692  0.0000000000
==== e(   1) =   -14.96104 eV ==== 
     psi = 0.234*[#   1]+0.234*[#   5]+0.131*[#   3]+0.131*[#   4]+0.131*[#   7]
          +0.131*[#   8]
    |psi|^2 = 0.994
==== e(   2) =   -14.96104 eV ==== 
     psi = 0.234*[#   1]+0.234*[#   5]+0.131*[#   3]+0.131*[#   4]+0.131*[#   7]
          +0.131*[#   8]
    |psi|^2 = 0.994
==== e(   3) =   -12.91637 eV ==== 
     psi = 0.245*[#   3]+0.245*[#   4]+0.245*[#   7]+0.245*[#   8]
    |psi|^2 = 0.981
==== e(   4) =    -2.35498 eV ==== 
     psi = 0.497*[#   2]+0.497*[#   6]
    |psi|^2 = 0.994
==== e(   5) =    -2.35498 eV ==== 
     psi = 0.497*[#   2]+0.497*[#   6]
    |psi|^2 = 0.994
==== e(   6) =     8.25727 eV ==== 
 
    |psi|^2 = 0.000
==== e(   7) =    10.50206 eV ==== 
     psi = 0.097*[#   1]+0.097*[#   5]+0.031*[#   3]+0.031*[#   4]+0.031*[#   7]
          +0.031*[#   8]
    |psi|^2 = 0.318
==== e(   8) =    10.50206 eV ==== 
     psi = 0.097*[#   1]+0.097*[#   5]+0.031*[#   3]+0.031*[#   4]+0.031*[#   7]
          +0.031*[#   8]
    |psi|^2 = 0.318
==== e(   9) =    11.09423 eV ==== 
     psi = 0.003*[#   3]+0.003*[#   4]+0.003*[#   7]+0.003*[#   8]
    |psi|^2 = 0.011
==== e(  10) =    12.29476 eV ==== 
 
    |psi|^2 = 0.000
==== e(  11) =    12.29476 eV ==== 
 
    |psi|^2 = 0.000
==== e(  12) =    12.37716 eV ==== 
     psi = 0.012*[#   1]+0.012*[#   5]+0.005*[#   3]+0.005*[#   4]+0.005*[#   7]
          +0.005*[#   8]
    |psi|^2 = 0.046
==== e(  13) =    12.37716 eV ==== 
     psi = 0.012*[#   1]+0.012*[#   5]+0.005*[#   3]+0.005*[#   4]+0.005*[#   7]
          +0.005*[#   8]
    |psi|^2 = 0.046
==== e(  14) =    12.43269 eV ==== 
 
    |psi|^2 = 0.001
==== e(  15) =    12.70260 eV ==== 
 
    |psi|^2 = 0.000
==== e(  16) =    13.09625 eV ==== 
     psi = 0.068*[#   1]+0.068*[#   5]+0.032*[#   3]+0.032*[#   4]+0.032*[#   7]
          +0.032*[#   8]
    |psi|^2 = 0.262

Lowdin Charges: 

     Atom #   1: total charge =   3.9560, s =  0.9004, 
     Atom #   1: total charge =   3.9560, p =  3.0556, pz=  0.9868, px=  1.0344, py=  1.0344, 
     Atom #   2: total charge =   3.9560, s =  0.9004, 
     Atom #   2: total charge =   3.9560, p =  3.0556, pz=  0.9868, px=  1.0344, py=  1.0344, 
     Spilling Parameter:   0.0110
 
     PROJWFC      :      2.77s CPU      6.18s WALL

 
   This run was terminated on:  17:44:45  21Nov2023            

=------------------------------------------------------------------------------=
   JOB DONE.
=------------------------------------------------------------------------------=
