
     Program PROJWFC v.7.2 starts on 21Nov2023 at 16:50:59 

     This program is part of the open-source Quantum ESPRESSO suite
     for quantum simulation of materials; please cite
         "P. Giannozzi et al., J. Phys.:Condens. Matter 21 395502 (2009);
         "P. Giannozzi et al., J. Phys.:Condens. Matter 29 465901 (2017);
         "P. Giannozzi et al., J. Chem. Phys. 152 154105 (2020);
          URL http://www.quantum-espresso.org", 
     in publications or presentations arising from this work. More details at
     http://www.quantum-espresso.org/quote

     Parallel version (MPI & OpenMP), running on       2 processor cores
     Number of MPI processes:                 2
     Threads/MPI process:                     1

     MPI processes distributed on     1 nodes
     R & G space division:  proc/nbgrp/npool/nimage =       2
     507331 MiB available memory on the printing compute node when the environment starts
 

     Reading xml data from directory:

     ../SCF/out/graphene.save/
     file C.pbe-n-kjpaw_psl.1.0.0.UPF: wavefunction(s)  2S 2P renormalized

     IMPORTANT: XC functional enforced from input :
     Exchange-correlation= PBE
                           (   1   4   3   4   0   0   0)
     Any further DFT definition will be discarded
     Please, verify this is what you really want

 
     Parallelization info
     --------------------
     sticks:   dense  smooth     PW     G-vecs:    dense   smooth      PW
     Min         297     150     45                48017    17042    3029
     Max         298     151     46                48026    17065    3036
     Sum         595     301     91                96043    34107    6065
 
     Using Slab Decomposition
 

     Check: negative core charge=   -0.000002

     negative rho (up, down):  1.273E-04 0.000E+00

     Gaussian broadening (read from file): ngauss,degauss=   0    0.000100


     Calling projwave .... 
     Subspace diagonalization in iterative solution of the eigenvalue problem:
     a serial algorithm will be used

 
  Problem Sizes 
  natomwfc =             8
  nbnd     =            16
  nkstot   =           151
  npwx     =          2157
  nkb      =            16
 

     Atomic states used for projection
     (read from pseudopotential files):

     state #   1: atom   1 (C  ), wfc  1 (l=0 m= 1)
     state #   2: atom   1 (C  ), wfc  2 (l=1 m= 1)
     state #   3: atom   1 (C  ), wfc  2 (l=1 m= 2)
     state #   4: atom   1 (C  ), wfc  2 (l=1 m= 3)
     state #   5: atom   2 (C  ), wfc  1 (l=0 m= 1)
     state #   6: atom   2 (C  ), wfc  2 (l=1 m= 1)
     state #   7: atom   2 (C  ), wfc  2 (l=1 m= 2)
     state #   8: atom   2 (C  ), wfc  2 (l=1 m= 3)

 k =  -0.3333333330  0.5773502698  0.0000000000
==== e(   1) =   -14.96089 eV ==== 
     psi = 0.234*[#   1]+0.234*[#   5]+0.131*[#   3]+0.131*[#   4]+0.131*[#   7]
          +0.131*[#   8]
    |psi|^2 = 0.994
==== e(   2) =   -14.96089 eV ==== 
     psi = 0.234*[#   1]+0.234*[#   5]+0.131*[#   3]+0.131*[#   4]+0.131*[#   7]
          +0.131*[#   8]
    |psi|^2 = 0.994
==== e(   3) =   -12.91470 eV ==== 
     psi = 0.245*[#   3]+0.245*[#   4]+0.245*[#   7]+0.245*[#   8]
    |psi|^2 = 0.981
==== e(   4) =    -2.35460 eV ==== 
     psi = 0.497*[#   2]+0.497*[#   6]
    |psi|^2 = 0.994
==== e(   5) =    -2.35460 eV ==== 
     psi = 0.497*[#   2]+0.497*[#   6]
    |psi|^2 = 0.994
==== e(   6) =     8.25924 eV ==== 
 
    |psi|^2 = 0.000
==== e(   7) =    10.50744 eV ==== 
     psi = 0.098*[#   1]+0.098*[#   5]+0.031*[#   3]+0.031*[#   4]+0.031*[#   7]
          +0.031*[#   8]
    |psi|^2 = 0.321
==== e(   8) =    10.50744 eV ==== 
     psi = 0.098*[#   1]+0.098*[#   5]+0.031*[#   3]+0.031*[#   4]+0.031*[#   7]
          +0.031*[#   8]
    |psi|^2 = 0.321
==== e(   9) =    11.10482 eV ==== 
     psi = 0.003*[#   3]+0.003*[#   4]+0.003*[#   7]+0.003*[#   8]
    |psi|^2 = 0.012
==== e(  10) =    12.35862 eV ==== 
 
    |psi|^2 = 0.000
==== e(  11) =    12.35862 eV ==== 
 
    |psi|^2 = 0.000
==== e(  12) =    12.47725 eV ==== 
     psi = 0.014*[#   1]+0.014*[#   5]+0.006*[#   3]+0.006*[#   4]+0.006*[#   7]
          +0.006*[#   8]
    |psi|^2 = 0.052
==== e(  13) =    12.47725 eV ==== 
     psi = 0.014*[#   1]+0.014*[#   5]+0.006*[#   3]+0.006*[#   4]+0.006*[#   7]
          +0.006*[#   8]
    |psi|^2 = 0.052
==== e(  14) =    12.53722 eV ==== 
 
    |psi|^2 = 0.001
==== e(  15) =    12.79495 eV ==== 
 
    |psi|^2 = 0.000
==== e(  16) =    13.15763 eV ==== 
     psi = 0.070*[#   1]+0.070*[#   5]+0.033*[#   3]+0.033*[#   4]+0.033*[#   7]
          +0.033*[#   8]
    |psi|^2 = 0.271

 k =  -0.3266666663  0.5658032644  0.0000000000
==== e(   1) =   -15.11085 eV ==== 
     psi = 0.237*[#   1]+0.237*[#   5]+0.130*[#   3]+0.130*[#   4]+0.130*[#   7]
          +0.130*[#   8]
    |psi|^2 = 0.993
==== e(   2) =   -14.82476 eV ==== 
     psi = 0.229*[#   1]+0.229*[#   5]+0.134*[#   3]+0.134*[#   4]+0.134*[#   7]
          +0.134*[#   8]
    |psi|^2 = 0.994
==== e(   3) =   -12.89452 eV ==== 
     psi = 0.245*[#   3]+0.245*[#   4]+0.245*[#   7]+0.245*[#   8]+0.002*[#   1]
          +0.002*[#   5]
    |psi|^2 = 0.981
==== e(   4) =    -2.54444 eV ==== 
     psi = 0.497*[#   2]+0.497*[#   6]
    |psi|^2 = 0.994
==== e(   5) =    -2.16590 eV ==== 
     psi = 0.497*[#   2]+0.497*[#   6]
    |psi|^2 = 0.993
==== e(   6) =     8.26584 eV ==== 
 
    |psi|^2 = 0.000
==== e(   7) =    10.39106 eV ==== 
     psi = 0.076*[#   1]+0.076*[#   5]+0.024*[#   3]+0.024*[#   4]+0.024*[#   7]
          +0.024*[#   8]
    |psi|^2 = 0.246
==== e(   8) =    10.56602 eV ==== 
     psi = 0.115*[#   1]+0.115*[#   5]+0.037*[#   3]+0.037*[#   4]+0.037*[#   7]
          +0.037*[#   8]
    |psi|^2 = 0.378
==== e(   9) =    11.09839 eV ==== 
     psi = 0.011*[#   1]+0.011*[#   5]+0.008*[#   3]+0.008*[#   4]+0.008*[#   7]
          +0.008*[#   8]
    |psi|^2 = 0.053
==== e(  10) =    12.04919 eV ==== 
 
    |psi|^2 = 0.000
==== e(  11) =    12.09411 eV ==== 
     psi = 0.004*[#   1]+0.004*[#   5]+0.002*[#   3]+0.002*[#   4]+0.002*[#   7]
          +0.002*[#   8]
    |psi|^2 = 0.015
==== e(  12) =    12.57925 eV ==== 
 
    |psi|^2 = 0.000
==== e(  13) =    12.67727 eV ==== 
     psi = 0.018*[#   1]+0.018*[#   5]+0.008*[#   3]+0.008*[#   4]+0.008*[#   7]
          +0.008*[#   8]
    |psi|^2 = 0.068
==== e(  14) =    12.71191 eV ==== 
     psi = 0.013*[#   1]+0.013*[#   5]+0.006*[#   3]+0.006*[#   4]+0.006*[#   7]
          +0.006*[#   8]
    |psi|^2 = 0.050
==== e(  15) =    12.83751 eV ==== 
 
    |psi|^2 = 0.000
==== e(  16) =    13.02875 eV ==== 
     psi = 0.047*[#   1]+0.047*[#   5]+0.022*[#   3]+0.022*[#   4]+0.022*[#   7]
          +0.022*[#   8]
    |psi|^2 = 0.184

 k =  -0.3199999997  0.5542562590  0.0000000000
==== e(   1) =   -15.28832 eV ==== 
     psi = 0.239*[#   1]+0.239*[#   5]+0.129*[#   3]+0.129*[#   4]+0.129*[#   7]
          +0.129*[#   8]
    |psi|^2 = 0.993
==== e(   2) =   -14.68345 eV ==== 
     psi = 0.223*[#   1]+0.223*[#   5]+0.137*[#   3]+0.137*[#   4]+0.137*[#   7]
          +0.137*[#   8]
    |psi|^2 = 0.994
==== e(   3) =   -12.83919 eV ==== 
     psi = 0.243*[#   3]+0.243*[#   4]+0.243*[#   7]+0.243*[#   8]+0.005*[#   1]
          +0.005*[#   5]
    |psi|^2 = 0.982
==== e(   4) =    -2.74273 eV ==== 
     psi = 0.497*[#   2]+0.497*[#   6]
    |psi|^2 = 0.995
==== e(   5) =    -1.97047 eV ==== 
     psi = 0.496*[#   2]+0.496*[#   6]
    |psi|^2 = 0.992
==== e(   6) =     8.28411 eV ==== 
 
    |psi|^2 = 0.000
==== e(   7) =    10.18441 eV ==== 
     psi = 0.051*[#   1]+0.051*[#   5]+0.015*[#   3]+0.015*[#   4]+0.015*[#   7]
          +0.015*[#   8]
    |psi|^2 = 0.165
==== e(   8) =    10.60854 eV ==== 
     psi = 0.134*[#   1]+0.134*[#   5]+0.042*[#   3]+0.042*[#   4]+0.042*[#   7]
          +0.042*[#   8]
    |psi|^2 = 0.437
==== e(   9) =    11.08420 eV ==== 
     psi = 0.035*[#   1]+0.035*[#   5]+0.018*[#   3]+0.018*[#   4]+0.018*[#   7]
          +0.018*[#   8]
    |psi|^2 = 0.141
==== e(  10) =    11.67954 eV ==== 
 
    |psi|^2 = 0.000
==== e(  11) =    11.69087 eV ==== 
 
    |psi|^2 = 0.004
==== e(  12) =    12.68489 eV ==== 
 
    |psi|^2 = 0.000
==== e(  13) =    12.75890 eV ==== 
     psi = 0.034*[#   1]+0.034*[#   5]+0.016*[#   3]+0.016*[#   4]+0.016*[#   7]
          +0.016*[#   8]
    |psi|^2 = 0.130
==== e(  14) =    12.80838 eV ==== 
 
    |psi|^2 = 0.000
==== e(  15) =    12.87896 eV ==== 
     psi = 0.023*[#   1]+0.023*[#   5]+0.010*[#   3]+0.010*[#   4]+0.010*[#   7]
          +0.010*[#   8]
    |psi|^2 = 0.087
==== e(  16) =    12.96665 eV ==== 
 
    |psi|^2 = 0.002

 k =  -0.3133333330  0.5427092536  0.0000000000
==== e(   1) =   -15.48553 eV ==== 
     psi = 0.239*[#   1]+0.239*[#   5]+0.128*[#   3]+0.128*[#   4]+0.128*[#   7]
          +0.128*[#   8]
    |psi|^2 = 0.992
==== e(   2) =   -14.53701 eV ==== 
     psi = 0.218*[#   1]+0.218*[#   5]+0.139*[#   3]+0.139*[#   4]+0.139*[#   7]
          +0.139*[#   8]
    |psi|^2 = 0.994
==== e(   3) =   -12.75623 eV ==== 
     psi = 0.241*[#   3]+0.241*[#   4]+0.241*[#   7]+0.241*[#   8]+0.010*[#   1]
          +0.010*[#   5]
    |psi|^2 = 0.982
==== e(   4) =    -2.94849 eV ==== 
     psi = 0.497*[#   2]+0.497*[#   6]
    |psi|^2 = 0.995
==== e(   5) =    -1.76842 eV ==== 
     psi = 0.496*[#   2]+0.496*[#   6]
    |psi|^2 = 0.992
==== e(   6) =     8.31092 eV ==== 
 
    |psi|^2 = 0.000
==== e(   7) =     9.91622 eV ==== 
     psi = 0.034*[#   1]+0.034*[#   5]+0.009*[#   3]+0.009*[#   4]+0.009*[#   7]
          +0.009*[#   8]
    |psi|^2 = 0.105
==== e(   8) =    10.63416 eV ==== 
     psi = 0.153*[#   1]+0.153*[#   5]+0.048*[#   3]+0.048*[#   4]+0.048*[#   7]
          +0.048*[#   8]
    |psi|^2 = 0.498
==== e(   9) =    11.04732 eV ==== 
     psi = 0.056*[#   1]+0.056*[#   5]+0.028*[#   3]+0.028*[#   4]+0.028*[#   7]
          +0.028*[#   8]
    |psi|^2 = 0.223
==== e(  10) =    11.29978 eV ==== 
     psi = 0.001*[#   3]+0.001*[#   4]+0.001*[#   7]+0.001*[#   8]
    |psi|^2 = 0.006
==== e(  11) =    11.30476 eV ==== 
 
    |psi|^2 = 0.000
==== e(  12) =    12.36503 eV ==== 
 
    |psi|^2 = 0.000
==== e(  13) =    12.48391 eV ==== 
     psi = 0.012*[#   1]+0.012*[#   5]+0.005*[#   3]+0.005*[#   4]+0.005*[#   7]
          +0.005*[#   8]
    |psi|^2 = 0.044
==== e(  14) =    13.04600 eV ==== 
 
    |psi|^2 = 0.000
==== e(  15) =    13.08110 eV ==== 
     psi = 0.028*[#   1]+0.028*[#   5]+0.013*[#   3]+0.013*[#   4]+0.013*[#   7]
          +0.013*[#   8]
    |psi|^2 = 0.107
==== e(  16) =    13.14717 eV ==== 
     psi = 0.012*[#   1]+0.012*[#   5]+0.007*[#   3]+0.007*[#   4]+0.007*[#   7]
          +0.007*[#   8]
    |psi|^2 = 0.051

 k =  -0.3066666664  0.5311622482  0.0000000000
==== e(   1) =   -15.69607 eV ==== 
     psi = 0.240*[#   1]+0.240*[#   5]+0.128*[#   3]+0.128*[#   4]+0.128*[#   7]
          +0.128*[#   8]
    |psi|^2 = 0.991
==== e(   2) =   -14.38547 eV ==== 
     psi = 0.213*[#   1]+0.213*[#   5]+0.142*[#   3]+0.142*[#   4]+0.142*[#   7]
          +0.142*[#   8]
    |psi|^2 = 0.994
==== e(   3) =   -12.65188 eV ==== 
     psi = 0.239*[#   3]+0.239*[#   4]+0.239*[#   7]+0.239*[#   8]+0.014*[#   1]
          +0.014*[#   5]
    |psi|^2 = 0.983
==== e(   4) =    -3.16072 eV ==== 
     psi = 0.498*[#   2]+0.498*[#   6]
    |psi|^2 = 0.995
==== e(   5) =    -1.55985 eV ==== 
     psi = 0.495*[#   2]+0.495*[#   6]
    |psi|^2 = 0.991
==== e(   6) =     8.34179 eV ==== 
 
    |psi|^2 = 0.001
==== e(   7) =     9.61239 eV ==== 
     psi = 0.022*[#   1]+0.022*[#   5]+0.006*[#   3]+0.006*[#   4]+0.006*[#   7]
          +0.006*[#   8]
    |psi|^2 = 0.068
==== e(   8) =    10.64296 eV ==== 
     psi = 0.171*[#   1]+0.171*[#   5]+0.054*[#   3]+0.054*[#   4]+0.054*[#   7]
          +0.054*[#   8]
    |psi|^2 = 0.556
==== e(   9) =    10.84945 eV ==== 
     psi = 0.018*[#   1]+0.018*[#   5]+0.008*[#   3]+0.008*[#   4]+0.008*[#   7]
          +0.008*[#   8]
    |psi|^2 = 0.066
==== e(  10) =    10.93693 eV ==== 
 
    |psi|^2 = 0.000
==== e(  11) =    11.05222 eV ==== 
     psi = 0.058*[#   1]+0.058*[#   5]+0.031*[#   3]+0.031*[#   4]+0.031*[#   7]
          +0.031*[#   8]
    |psi|^2 = 0.241
==== e(  12) =    12.01909 eV ==== 
 
    |psi|^2 = 0.000
==== e(  13) =    12.15014 eV ==== 
     psi = 0.003*[#   1]+0.003*[#   5]+0.001*[#   3]+0.001*[#   4]+0.001*[#   7]
          +0.001*[#   8]
    |psi|^2 = 0.012
==== e(  14) =    13.28373 eV ==== 
     psi = 0.032*[#   1]+0.032*[#   5]+0.015*[#   3]+0.015*[#   4]+0.015*[#   7]
          +0.015*[#   8]
    |psi|^2 = 0.124
==== e(  15) =    13.29207 eV ==== 
 
    |psi|^2 = 0.000
==== e(  16) =    13.34284 eV ==== 
     psi = 0.022*[#   1]+0.022*[#   5]+0.012*[#   3]+0.012*[#   4]+0.012*[#   7]
          +0.012*[#   8]
    |psi|^2 = 0.094

 k =  -0.2999999997  0.5196152428  0.0000000000
==== e(   1) =   -15.91511 eV ==== 
     psi = 0.241*[#   1]+0.241*[#   5]+0.127*[#   3]+0.127*[#   4]+0.127*[#   7]
          +0.127*[#   8]
    |psi|^2 = 0.990
==== e(   2) =   -14.22884 eV ==== 
     psi = 0.208*[#   1]+0.208*[#   5]+0.145*[#   3]+0.145*[#   4]+0.145*[#   7]
          +0.145*[#   8]
    |psi|^2 = 0.994
==== e(   3) =   -12.53079 eV ==== 
     psi = 0.237*[#   3]+0.237*[#   4]+0.237*[#   7]+0.237*[#   8]+0.018*[#   1]
          +0.018*[#   5]
    |psi|^2 = 0.984
==== e(   4) =    -3.37839 eV ==== 
     psi = 0.498*[#   2]+0.498*[#   6]
    |psi|^2 = 0.995
==== e(   5) =    -1.34486 eV ==== 
     psi = 0.495*[#   2]+0.495*[#   6]
    |psi|^2 = 0.990
==== e(   6) =     8.37016 eV ==== 
 
    |psi|^2 = 0.001
==== e(   7) =     9.28941 eV ==== 
     psi = 0.015*[#   1]+0.015*[#   5]+0.004*[#   3]+0.004*[#   4]+0.004*[#   7]
          +0.004*[#   8]
    |psi|^2 = 0.045
==== e(   8) =    10.47506 eV ==== 
     psi = 0.005*[#   1]+0.005*[#   5]+0.002*[#   3]+0.002*[#   4]+0.002*[#   7]
          +0.002*[#   8]
    |psi|^2 = 0.017
==== e(   9) =    10.58196 eV ==== 
 
    |psi|^2 = 0.000
==== e(  10) =    10.63583 eV ==== 
     psi = 0.188*[#   1]+0.188*[#   5]+0.058*[#   3]+0.058*[#   4]+0.058*[#   7]
          +0.058*[#   8]
    |psi|^2 = 0.611
==== e(  11) =    10.95968 eV ==== 
     psi = 0.086*[#   1]+0.086*[#   5]+0.046*[#   3]+0.046*[#   4]+0.046*[#   7]
          +0.046*[#   8]
    |psi|^2 = 0.356
==== e(  12) =    11.67644 eV ==== 
 
    |psi|^2 = 0.000
==== e(  13) =    11.80037 eV ==== 
 
    |psi|^2 = 0.003
==== e(  14) =    13.48861 eV ==== 
     psi = 0.034*[#   1]+0.034*[#   5]+0.016*[#   3]+0.016*[#   4]+0.016*[#   7]
          +0.016*[#   8]
    |psi|^2 = 0.133
==== e(  15) =    13.51886 eV ==== 
     psi = 0.032*[#   1]+0.032*[#   5]+0.018*[#   3]+0.018*[#   4]+0.018*[#   7]
          +0.018*[#   8]
    |psi|^2 = 0.137
==== e(  16) =    13.53249 eV ==== 
 
    |psi|^2 = 0.000

 k =  -0.2933333330  0.5080682374  0.0000000000
==== e(   1) =   -16.13917 eV ==== 
     psi = 0.242*[#   1]+0.242*[#   5]+0.126*[#   3]+0.126*[#   4]+0.126*[#   7]
          +0.126*[#   8]
    |psi|^2 = 0.990
==== e(   2) =   -14.06717 eV ==== 
     psi = 0.202*[#   1]+0.202*[#   5]+0.147*[#   3]+0.147*[#   4]+0.147*[#   7]
          +0.147*[#   8]
    |psi|^2 = 0.994
==== e(   3) =   -12.39635 eV ==== 
     psi = 0.235*[#   3]+0.235*[#   4]+0.235*[#   7]+0.235*[#   8]+0.022*[#   1]
          +0.022*[#   5]
    |psi|^2 = 0.984
==== e(   4) =    -3.60050 eV ==== 
     psi = 0.498*[#   2]+0.498*[#   6]
    |psi|^2 = 0.995
==== e(   5) =    -1.12358 eV ==== 
     psi = 0.495*[#   2]+0.495*[#   6]
    |psi|^2 = 0.989
==== e(   6) =     8.38642 eV ==== 
 
    |psi|^2 = 0.001
==== e(   7) =     8.95705 eV ==== 
     psi = 0.011*[#   1]+0.011*[#   5]+0.002*[#   3]+0.002*[#   4]+0.002*[#   7]
          +0.002*[#   8]
    |psi|^2 = 0.030
==== e(   8) =    10.09357 eV ==== 
     psi = 0.003*[#   1]+0.003*[#   5]
    |psi|^2 = 0.008
==== e(   9) =    10.24500 eV ==== 
 
    |psi|^2 = 0.000
==== e(  10) =    10.61429 eV ==== 
     psi = 0.204*[#   1]+0.204*[#   5]+0.063*[#   3]+0.063*[#   4]+0.063*[#   7]
          +0.063*[#   8]
    |psi|^2 = 0.660
==== e(  11) =    10.85118 eV ==== 
     psi = 0.099*[#   1]+0.099*[#   5]+0.054*[#   3]+0.054*[#   4]+0.054*[#   7]
          +0.054*[#   8]
    |psi|^2 = 0.414
==== e(  12) =    11.34784 eV ==== 
 
    |psi|^2 = 0.000
==== e(  13) =    11.44981 eV ==== 
     psi = 0.002*[#   3]+0.002*[#   4]+0.002*[#   7]+0.002*[#   8]
    |psi|^2 = 0.008
==== e(  14) =    13.27548 eV ==== 
 
    |psi|^2 = 0.000
==== e(  15) =    13.49853 eV ==== 
     psi = 0.019*[#   1]+0.019*[#   5]+0.009*[#   3]+0.009*[#   4]+0.009*[#   7]
          +0.009*[#   8]
    |psi|^2 = 0.076
==== e(  16) =    13.69846 eV ==== 
     psi = 0.034*[#   1]+0.034*[#   5]+0.016*[#   3]+0.016*[#   4]+0.016*[#   7]
          +0.016*[#   8]
    |psi|^2 = 0.133

 k =  -0.2866666664  0.4965212320  0.0000000000
==== e(   1) =   -16.36573 eV ==== 
     psi = 0.244*[#   1]+0.244*[#   5]+0.125*[#   3]+0.125*[#   4]+0.125*[#   7]
          +0.125*[#   8]
    |psi|^2 = 0.989
==== e(   2) =   -13.90049 eV ==== 
     psi = 0.197*[#   1]+0.197*[#   5]+0.150*[#   3]+0.150*[#   4]+0.150*[#   7]
          +0.150*[#   8]
    |psi|^2 = 0.994
==== e(   3) =   -12.25098 eV ==== 
     psi = 0.234*[#   3]+0.234*[#   4]+0.234*[#   7]+0.234*[#   8]+0.025*[#   1]
          +0.025*[#   5]
    |psi|^2 = 0.985
==== e(   4) =    -3.82609 eV ==== 
     psi = 0.498*[#   2]+0.498*[#   6]
    |psi|^2 = 0.996
==== e(   5) =    -0.89614 eV ==== 
     psi = 0.494*[#   2]+0.494*[#   6]
    |psi|^2 = 0.988
==== e(   6) =     8.37692 eV ==== 
 
    |psi|^2 = 0.001
==== e(   7) =     8.62118 eV ==== 
     psi = 0.008*[#   1]+0.008*[#   5]+0.002*[#   3]+0.002*[#   4]+0.002*[#   7]
          +0.002*[#   8]
    |psi|^2 = 0.021
==== e(   8) =     9.71759 eV ==== 
     psi = 0.002*[#   1]+0.002*[#   5]
    |psi|^2 = 0.005
==== e(   9) =     9.93167 eV ==== 
 
    |psi|^2 = 0.000
==== e(  10) =    10.58013 eV ==== 
     psi = 0.218*[#   1]+0.218*[#   5]+0.067*[#   3]+0.067*[#   4]+0.067*[#   7]
          +0.067*[#   8]
    |psi|^2 = 0.703
==== e(  11) =    10.71095 eV ==== 
     psi = 0.102*[#   1]+0.102*[#   5]+0.057*[#   3]+0.057*[#   4]+0.057*[#   7]
          +0.057*[#   8]
    |psi|^2 = 0.432
==== e(  12) =    11.04198 eV ==== 
 
    |psi|^2 = 0.000
==== e(  13) =    11.11032 eV ==== 
     psi = 0.007*[#   1]+0.007*[#   3]+0.007*[#   4]+0.007*[#   5]+0.007*[#   7]
          +0.007*[#   8]
    |psi|^2 = 0.043
==== e(  14) =    12.97158 eV ==== 
 
    |psi|^2 = 0.000
==== e(  15) =    13.23026 eV ==== 
     psi = 0.006*[#   1]+0.006*[#   5]+0.002*[#   3]+0.002*[#   4]+0.002*[#   7]
          +0.002*[#   8]
    |psi|^2 = 0.021
==== e(  16) =    13.91577 eV ==== 
     psi = 0.032*[#   1]+0.032*[#   5]+0.016*[#   3]+0.016*[#   4]+0.016*[#   7]
          +0.016*[#   8]
    |psi|^2 = 0.127

 k =  -0.2799999997  0.4849742266  0.0000000000
==== e(   1) =   -16.59295 eV ==== 
     psi = 0.246*[#   1]+0.246*[#   5]+0.124*[#   3]+0.124*[#   4]+0.124*[#   7]
          +0.124*[#   8]
    |psi|^2 = 0.988
==== e(   2) =   -13.72887 eV ==== 
     psi = 0.192*[#   1]+0.192*[#   5]+0.153*[#   3]+0.153*[#   4]+0.153*[#   7]
          +0.153*[#   8]
    |psi|^2 = 0.994
==== e(   3) =   -12.09645 eV ==== 
     psi = 0.233*[#   3]+0.233*[#   4]+0.233*[#   7]+0.233*[#   8]+0.027*[#   1]
          +0.027*[#   5]
    |psi|^2 = 0.985
==== e(   4) =    -4.05421 eV ==== 
     psi = 0.498*[#   2]+0.498*[#   6]
    |psi|^2 = 0.996
==== e(   5) =    -0.66269 eV ==== 
     psi = 0.494*[#   2]+0.494*[#   6]
    |psi|^2 = 0.987
==== e(   6) =     8.28543 eV ==== 
     psi = 0.005*[#   1]+0.005*[#   5]+0.001*[#   3]+0.001*[#   4]+0.001*[#   7]
          +0.001*[#   8]
    |psi|^2 = 0.015
==== e(   7) =     8.32456 eV ==== 
 
    |psi|^2 = 0.001
==== e(   8) =     9.34895 eV ==== 
     psi = 0.001*[#   1]+0.001*[#   5]
    |psi|^2 = 0.003
==== e(   9) =     9.64682 eV ==== 
 
    |psi|^2 = 0.000
==== e(  10) =    10.52293 eV ==== 
     psi = 0.084*[#   1]+0.084*[#   5]+0.046*[#   3]+0.046*[#   4]+0.046*[#   7]
          +0.046*[#   8]
    |psi|^2 = 0.353
==== e(  11) =    10.53525 eV ==== 
     psi = 0.231*[#   1]+0.231*[#   5]+0.070*[#   3]+0.070*[#   4]+0.070*[#   7]
          +0.070*[#   8]
    |psi|^2 = 0.741
==== e(  12) =    10.76909 eV ==== 
 
    |psi|^2 = 0.000
==== e(  13) =    10.80303 eV ==== 
     psi = 0.033*[#   1]+0.033*[#   5]+0.025*[#   3]+0.025*[#   4]+0.025*[#   7]
          +0.025*[#   8]
    |psi|^2 = 0.167
==== e(  14) =    12.66581 eV ==== 
 
    |psi|^2 = 0.000
==== e(  15) =    12.91521 eV ==== 
     psi = 0.002*[#   1]+0.002*[#   5]
    |psi|^2 = 0.008
==== e(  16) =    14.14203 eV ==== 
     psi = 0.028*[#   1]+0.028*[#   5]+0.015*[#   3]+0.015*[#   4]+0.015*[#   7]
          +0.015*[#   8]
    |psi|^2 = 0.118

 k =  -0.2733333331  0.4734272212  0.0000000000
==== e(   1) =   -16.81955 eV ==== 
     psi = 0.248*[#   1]+0.248*[#   5]+0.123*[#   3]+0.123*[#   4]+0.123*[#   7]
          +0.123*[#   8]
    |psi|^2 = 0.987
==== e(   2) =   -13.55235 eV ==== 
     psi = 0.186*[#   1]+0.186*[#   5]+0.155*[#   3]+0.155*[#   4]+0.155*[#   7]
          +0.155*[#   8]
    |psi|^2 = 0.994
==== e(   3) =   -11.93408 eV ==== 
     psi = 0.232*[#   3]+0.232*[#   4]+0.232*[#   7]+0.232*[#   8]+0.030*[#   1]
          +0.030*[#   5]
    |psi|^2 = 0.986
==== e(   4) =    -4.28400 eV ==== 
     psi = 0.498*[#   2]+0.498*[#   6]
    |psi|^2 = 0.996
==== e(   5) =    -0.42338 eV ==== 
     psi = 0.493*[#   2]+0.493*[#   6]
    |psi|^2 = 0.986
==== e(   6) =     7.95216 eV ==== 
     psi = 0.004*[#   1]+0.004*[#   5]
    |psi|^2 = 0.012
==== e(   7) =     8.21417 eV ==== 
 
    |psi|^2 = 0.000
==== e(   8) =     8.98822 eV ==== 
 
    |psi|^2 = 0.002
==== e(   9) =     9.38952 eV ==== 
 
    |psi|^2 = 0.000
==== e(  10) =    10.26372 eV ==== 
     psi = 0.044*[#   1]+0.044*[#   5]+0.023*[#   3]+0.023*[#   4]+0.023*[#   7]
          +0.023*[#   8]
    |psi|^2 = 0.180
==== e(  11) =    10.48144 eV ==== 
     psi = 0.242*[#   1]+0.242*[#   5]+0.072*[#   3]+0.072*[#   4]+0.072*[#   7]
          +0.072*[#   8]
    |psi|^2 = 0.773
==== e(  12) =    10.54075 eV ==== 
 
    |psi|^2 = 0.001
==== e(  13) =    10.55650 eV ==== 
     psi = 0.078*[#   1]+0.078*[#   5]+0.055*[#   3]+0.055*[#   4]+0.055*[#   7]
          +0.055*[#   8]
    |psi|^2 = 0.378
==== e(  14) =    12.37241 eV ==== 
 
    |psi|^2 = 0.000
==== e(  15) =    12.59016 eV ==== 
 
    |psi|^2 = 0.004
==== e(  16) =    14.37769 eV ==== 
     psi = 0.024*[#   1]+0.024*[#   5]+0.015*[#   3]+0.015*[#   4]+0.015*[#   7]
          +0.015*[#   8]
    |psi|^2 = 0.108

 k =  -0.2666666664  0.4618802158  0.0000000000
==== e(   1) =   -17.04448 eV ==== 
     psi = 0.251*[#   1]+0.251*[#   5]+0.121*[#   3]+0.121*[#   4]+0.121*[#   7]
          +0.121*[#   8]
    |psi|^2 = 0.987
==== e(   2) =   -13.37100 eV ==== 
     psi = 0.181*[#   1]+0.181*[#   5]+0.158*[#   3]+0.158*[#   4]+0.158*[#   7]
          +0.158*[#   8]
    |psi|^2 = 0.994
==== e(   3) =   -11.76487 eV ==== 
     psi = 0.231*[#   3]+0.231*[#   4]+0.231*[#   7]+0.231*[#   8]+0.031*[#   1]
          +0.031*[#   5]
    |psi|^2 = 0.986
==== e(   4) =    -4.51464 eV ==== 
     psi = 0.498*[#   2]+0.498*[#   6]
    |psi|^2 = 0.996
==== e(   5) =    -0.17838 eV ==== 
     psi = 0.493*[#   2]+0.493*[#   6]
    |psi|^2 = 0.985
==== e(   6) =     7.62294 eV ==== 
     psi = 0.003*[#   1]+0.003*[#   5]
    |psi|^2 = 0.009
==== e(   7) =     8.04248 eV ==== 
 
    |psi|^2 = 0.000
==== e(   8) =     8.63570 eV ==== 
 
    |psi|^2 = 0.002
==== e(   9) =     9.14791 eV ==== 
 
    |psi|^2 = 0.000
==== e(  10) =     9.95561 eV ==== 
     psi = 0.021*[#   1]+0.021*[#   5]+0.010*[#   3]+0.010*[#   4]+0.010*[#   7]
          +0.010*[#   8]
    |psi|^2 = 0.082
==== e(  11) =    10.35291 eV ==== 
     psi = 0.105*[#   1]+0.105*[#   5]+0.075*[#   3]+0.075*[#   4]+0.075*[#   7]
          +0.075*[#   8]
    |psi|^2 = 0.509
==== e(  12) =    10.36466 eV ==== 
 
    |psi|^2 = 0.001
==== e(  13) =    10.42032 eV ==== 
     psi = 0.251*[#   1]+0.251*[#   5]+0.075*[#   3]+0.075*[#   4]+0.075*[#   7]
          +0.075*[#   8]
    |psi|^2 = 0.801
==== e(  14) =    12.10142 eV ==== 
 
    |psi|^2 = 0.000
==== e(  15) =    12.26422 eV ==== 
 
    |psi|^2 = 0.002
==== e(  16) =    14.62235 eV ==== 
     psi = 0.021*[#   1]+0.021*[#   5]+0.014*[#   3]+0.014*[#   4]+0.014*[#   7]
          +0.014*[#   8]
    |psi|^2 = 0.099

 k =  -0.2599999997  0.4503332104  0.0000000000
==== e(   1) =   -17.26700 eV ==== 
     psi = 0.254*[#   1]+0.254*[#   5]+0.119*[#   3]+0.119*[#   4]+0.119*[#   7]
          +0.119*[#   8]
    |psi|^2 = 0.986
==== e(   2) =   -13.18484 eV ==== 
     psi = 0.176*[#   1]+0.176*[#   5]+0.161*[#   3]+0.161*[#   4]+0.161*[#   7]
          +0.161*[#   8]
    |psi|^2 = 0.994
==== e(   3) =   -11.58962 eV ==== 
     psi = 0.230*[#   3]+0.230*[#   4]+0.230*[#   7]+0.230*[#   8]+0.033*[#   1]
          +0.033*[#   5]
    |psi|^2 = 0.987
==== e(   4) =    -4.74536 eV ==== 
     psi = 0.498*[#   2]+0.498*[#   6]
    |psi|^2 = 0.996
==== e(   5) =     0.07214 eV ==== 
     psi = 0.492*[#   2]+0.492*[#   6]
    |psi|^2 = 0.984
==== e(   6) =     7.29885 eV ==== 
     psi = 0.002*[#   1]+0.002*[#   5]+0.001*[#   3]+0.001*[#   4]+0.001*[#   7]
          +0.001*[#   8]
    |psi|^2 = 0.008
==== e(   7) =     7.82114 eV ==== 
 
    |psi|^2 = 0.000
==== e(   8) =     8.29154 eV ==== 
 
    |psi|^2 = 0.001
==== e(   9) =     8.90485 eV ==== 
 
    |psi|^2 = 0.000
==== e(  10) =     9.63404 eV ==== 
     psi = 0.012*[#   1]+0.012*[#   5]+0.005*[#   3]+0.005*[#   4]+0.005*[#   7]
          +0.005*[#   8]
    |psi|^2 = 0.043
==== e(  11) =    10.16061 eV ==== 
     psi = 0.118*[#   1]+0.118*[#   5]+0.085*[#   3]+0.085*[#   4]+0.085*[#   7]
          +0.085*[#   8]
    |psi|^2 = 0.576
==== e(  12) =    10.23488 eV ==== 
 
    |psi|^2 = 0.001
==== e(  13) =    10.35328 eV ==== 
     psi = 0.258*[#   1]+0.258*[#   5]+0.077*[#   3]+0.077*[#   4]+0.077*[#   7]
          +0.077*[#   8]
    |psi|^2 = 0.825
==== e(  14) =    11.86417 eV ==== 
 
    |psi|^2 = 0.001
==== e(  15) =    11.94115 eV ==== 
 
    |psi|^2 = 0.003
==== e(  16) =    14.50047 eV ==== 
 
    |psi|^2 = 0.000

 k =  -0.2533333331  0.4387862050  0.0000000000
==== e(   1) =   -17.48647 eV ==== 
     psi = 0.258*[#   1]+0.258*[#   5]+0.117*[#   3]+0.117*[#   4]+0.117*[#   7]
          +0.117*[#   8]
    |psi|^2 = 0.985
==== e(   2) =   -12.99398 eV ==== 
     psi = 0.170*[#   1]+0.170*[#   5]+0.163*[#   3]+0.163*[#   4]+0.163*[#   7]
          +0.163*[#   8]
    |psi|^2 = 0.995
==== e(   3) =   -11.40899 eV ==== 
     psi = 0.230*[#   3]+0.230*[#   4]+0.230*[#   7]+0.230*[#   8]+0.034*[#   1]
          +0.034*[#   5]
    |psi|^2 = 0.987
==== e(   4) =    -4.97545 eV ==== 
     psi = 0.498*[#   2]+0.498*[#   6]
    |psi|^2 = 0.996
==== e(   5) =     0.32798 eV ==== 
     psi = 0.491*[#   2]+0.491*[#   6]
    |psi|^2 = 0.983
==== e(   6) =     6.98068 eV ==== 
     psi = 0.001*[#   1]+0.001*[#   5]+0.001*[#   3]+0.001*[#   4]+0.001*[#   7]
          +0.001*[#   8]
    |psi|^2 = 0.008
==== e(   7) =     7.56771 eV ==== 
 
    |psi|^2 = 0.000
==== e(   8) =     7.95584 eV ==== 
 
    |psi|^2 = 0.001
==== e(   9) =     8.65058 eV ==== 
 
    |psi|^2 = 0.000
==== e(  10) =     9.31257 eV ==== 
     psi = 0.007*[#   1]+0.007*[#   5]+0.003*[#   3]+0.003*[#   4]+0.003*[#   7]
          +0.003*[#   8]
    |psi|^2 = 0.026
==== e(  11) =     9.96916 eV ==== 
     psi = 0.124*[#   1]+0.124*[#   5]+0.092*[#   3]+0.092*[#   4]+0.092*[#   7]
          +0.092*[#   8]
    |psi|^2 = 0.618
==== e(  12) =    10.12806 eV ==== 
 
    |psi|^2 = 0.001
==== e(  13) =    10.28148 eV ==== 
     psi = 0.265*[#   1]+0.265*[#   5]+0.079*[#   3]+0.079*[#   4]+0.079*[#   7]
          +0.079*[#   8]
    |psi|^2 = 0.845
==== e(  14) =    11.62287 eV ==== 
 
    |psi|^2 = 0.004
==== e(  15) =    11.67444 eV ==== 
 
    |psi|^2 = 0.001
==== e(  16) =    14.24404 eV ==== 
 
    |psi|^2 = 0.000

 k =  -0.2466666664  0.4272391996  0.0000000000
==== e(   1) =   -17.70246 eV ==== 
     psi = 0.262*[#   1]+0.262*[#   5]+0.115*[#   3]+0.115*[#   4]+0.115*[#   7]
          +0.115*[#   8]
    |psi|^2 = 0.985
==== e(   2) =   -12.79848 eV ==== 
     psi = 0.166*[#   3]+0.166*[#   4]+0.166*[#   7]+0.166*[#   8]+0.165*[#   1]
          +0.165*[#   5]
    |psi|^2 = 0.995
==== e(   3) =   -11.22354 eV ==== 
     psi = 0.230*[#   3]+0.230*[#   4]+0.230*[#   7]+0.230*[#   8]+0.034*[#   1]
          +0.034*[#   5]
    |psi|^2 = 0.988
==== e(   4) =    -5.20428 eV ==== 
     psi = 0.498*[#   2]+0.498*[#   6]
    |psi|^2 = 0.996
==== e(   5) =     0.58893 eV ==== 
     psi = 0.491*[#   2]+0.491*[#   6]
    |psi|^2 = 0.982
==== e(   6) =     6.66899 eV ==== 
     psi = 0.002*[#   3]+0.002*[#   4]+0.002*[#   7]+0.002*[#   8]
    |psi|^2 = 0.008
==== e(   7) =     7.29680 eV ==== 
 
    |psi|^2 = 0.000
==== e(   8) =     7.62867 eV ==== 
 
    |psi|^2 = 0.001
==== e(   9) =     8.38515 eV ==== 
 
    |psi|^2 = 0.000
==== e(  10) =     8.99564 eV ==== 
     psi = 0.005*[#   1]+0.005*[#   5]+0.002*[#   3]+0.002*[#   4]+0.002*[#   7]
          +0.002*[#   8]
    |psi|^2 = 0.017
==== e(  11) =     9.77666 eV ==== 
     psi = 0.128*[#   1]+0.128*[#   5]+0.098*[#   3]+0.098*[#   4]+0.098*[#   7]
          +0.098*[#   8]
    |psi|^2 = 0.649
==== e(  12) =    10.01334 eV ==== 
 
    |psi|^2 = 0.000
==== e(  13) =    10.20590 eV ==== 
     psi = 0.270*[#   1]+0.270*[#   5]+0.080*[#   3]+0.080*[#   4]+0.080*[#   7]
          +0.080*[#   8]
    |psi|^2 = 0.862
==== e(  14) =    11.31056 eV ==== 
     psi = 0.001*[#   3]+0.001*[#   4]+0.001*[#   7]+0.001*[#   8]
    |psi|^2 = 0.005
==== e(  15) =    11.54493 eV ==== 
 
    |psi|^2 = 0.001
==== e(  16) =    13.99229 eV ==== 
 
    |psi|^2 = 0.000

 k =  -0.2399999998  0.4156921942  0.0000000000
==== e(   1) =   -17.91456 eV ==== 
     psi = 0.266*[#   1]+0.266*[#   5]+0.113*[#   3]+0.113*[#   4]+0.113*[#   7]
          +0.113*[#   8]
    |psi|^2 = 0.984
==== e(   2) =   -12.59845 eV ==== 
     psi = 0.169*[#   3]+0.169*[#   4]+0.169*[#   7]+0.169*[#   8]+0.160*[#   1]
          +0.160*[#   5]
    |psi|^2 = 0.995
==== e(   3) =   -11.03378 eV ==== 
     psi = 0.230*[#   3]+0.230*[#   4]+0.230*[#   7]+0.230*[#   8]+0.035*[#   1]
          +0.035*[#   5]
    |psi|^2 = 0.988
==== e(   4) =    -5.43124 eV ==== 
     psi = 0.498*[#   2]+0.498*[#   6]
    |psi|^2 = 0.996
==== e(   5) =     0.85474 eV ==== 
     psi = 0.490*[#   2]+0.490*[#   6]
    |psi|^2 = 0.980
==== e(   6) =     6.36418 eV ==== 
     psi = 0.002*[#   3]+0.002*[#   4]+0.002*[#   7]+0.002*[#   8]
    |psi|^2 = 0.009
==== e(   7) =     7.01804 eV ==== 
 
    |psi|^2 = 0.000
==== e(   8) =     7.31008 eV ==== 
 
    |psi|^2 = 0.001
==== e(   9) =     8.11280 eV ==== 
 
    |psi|^2 = 0.000
==== e(  10) =     8.68503 eV ==== 
     psi = 0.004*[#   1]+0.004*[#   5]+0.001*[#   3]+0.001*[#   4]+0.001*[#   7]
          +0.001*[#   8]
    |psi|^2 = 0.011
==== e(  11) =     9.58337 eV ==== 
     psi = 0.131*[#   1]+0.131*[#   5]+0.103*[#   3]+0.103*[#   4]+0.103*[#   7]
          +0.103*[#   8]
    |psi|^2 = 0.673
==== e(  12) =     9.86856 eV ==== 
 
    |psi|^2 = 0.000
==== e(  13) =    10.12726 eV ==== 
     psi = 0.274*[#   1]+0.274*[#   5]+0.082*[#   3]+0.082*[#   4]+0.082*[#   7]
          +0.082*[#   8]
    |psi|^2 = 0.876
==== e(  14) =    11.00493 eV ==== 
     psi = 0.002*[#   3]+0.002*[#   4]+0.002*[#   7]+0.002*[#   8]
    |psi|^2 = 0.007
==== e(  15) =    11.47829 eV ==== 
 
    |psi|^2 = 0.001
==== e(  16) =    13.75744 eV ==== 
 
    |psi|^2 = 0.001

 k =  -0.2333333331  0.4041451888  0.0000000000
==== e(   1) =   -18.12246 eV ==== 
     psi = 0.270*[#   1]+0.270*[#   5]+0.111*[#   3]+0.111*[#   4]+0.111*[#   7]
          +0.111*[#   8]
    |psi|^2 = 0.984
==== e(   2) =   -12.39396 eV ==== 
     psi = 0.171*[#   3]+0.171*[#   4]+0.171*[#   7]+0.171*[#   8]+0.154*[#   1]
          +0.154*[#   5]
    |psi|^2 = 0.995
==== e(   3) =   -10.84014 eV ==== 
     psi = 0.229*[#   3]+0.229*[#   4]+0.229*[#   7]+0.229*[#   8]+0.035*[#   1]
          +0.035*[#   5]
    |psi|^2 = 0.988
==== e(   4) =    -5.65580 eV ==== 
     psi = 0.498*[#   2]+0.498*[#   6]
    |psi|^2 = 0.996
==== e(   5) =     1.12519 eV ==== 
     psi = 0.490*[#   2]+0.490*[#   6]
    |psi|^2 = 0.979
==== e(   6) =     6.06659 eV ==== 
     psi = 0.002*[#   3]+0.002*[#   4]+0.002*[#   7]+0.002*[#   8]
    |psi|^2 = 0.010
==== e(   7) =     6.73730 eV ==== 
 
    |psi|^2 = 0.001
==== e(   8) =     7.00010 eV ==== 
 
    |psi|^2 = 0.001
==== e(   9) =     7.83785 eV ==== 
 
    |psi|^2 = 0.000
==== e(  10) =     8.38159 eV ==== 
     psi = 0.003*[#   1]+0.003*[#   5]
    |psi|^2 = 0.008
==== e(  11) =     9.39016 eV ==== 
     psi = 0.132*[#   1]+0.132*[#   5]+0.107*[#   3]+0.107*[#   4]+0.107*[#   7]
          +0.107*[#   8]
    |psi|^2 = 0.694
==== e(  12) =     9.68882 eV ==== 
 
    |psi|^2 = 0.000
==== e(  13) =    10.04622 eV ==== 
     psi = 0.277*[#   1]+0.277*[#   5]+0.084*[#   3]+0.084*[#   4]+0.084*[#   7]
          +0.084*[#   8]
    |psi|^2 = 0.889
==== e(  14) =    10.70651 eV ==== 
     psi = 0.002*[#   3]+0.002*[#   4]+0.002*[#   7]+0.002*[#   8]
    |psi|^2 = 0.010
==== e(  15) =    11.46043 eV ==== 
 
    |psi|^2 = 0.001
==== e(  16) =    13.55029 eV ==== 
 
    |psi|^2 = 0.001

 k =  -0.2266666664  0.3925981834  0.0000000000
==== e(   1) =   -18.32586 eV ==== 
     psi = 0.274*[#   1]+0.274*[#   5]+0.109*[#   3]+0.109*[#   4]+0.109*[#   7]
          +0.109*[#   8]
    |psi|^2 = 0.983
==== e(   2) =   -12.18512 eV ==== 
     psi = 0.174*[#   3]+0.174*[#   4]+0.174*[#   7]+0.174*[#   8]+0.149*[#   1]
          +0.149*[#   5]
    |psi|^2 = 0.995
==== e(   3) =   -10.64305 eV ==== 
     psi = 0.230*[#   3]+0.230*[#   4]+0.230*[#   7]+0.230*[#   8]+0.035*[#   1]
          +0.035*[#   5]
    |psi|^2 = 0.988
==== e(   4) =    -5.87746 eV ==== 
     psi = 0.498*[#   2]+0.498*[#   6]
    |psi|^2 = 0.995
==== e(   5) =     1.39999 eV ==== 
     psi = 0.489*[#   2]+0.489*[#   6]
    |psi|^2 = 0.978
==== e(   6) =     5.77645 eV ==== 
     psi = 0.003*[#   3]+0.003*[#   4]+0.003*[#   7]+0.003*[#   8]
    |psi|^2 = 0.011
==== e(   7) =     6.45814 eV ==== 
 
    |psi|^2 = 0.001
==== e(   8) =     6.69876 eV ==== 
 
    |psi|^2 = 0.001
==== e(   9) =     7.56361 eV ==== 
 
    |psi|^2 = 0.000
==== e(  10) =     8.08579 eV ==== 
     psi = 0.002*[#   1]+0.002*[#   5]
    |psi|^2 = 0.006
==== e(  11) =     9.19795 eV ==== 
     psi = 0.132*[#   1]+0.132*[#   5]+0.111*[#   3]+0.111*[#   4]+0.111*[#   7]
          +0.111*[#   8]
    |psi|^2 = 0.710
==== e(  12) =     9.48151 eV ==== 
 
    |psi|^2 = 0.000
==== e(  13) =     9.96325 eV ==== 
     psi = 0.279*[#   1]+0.279*[#   5]+0.086*[#   3]+0.086*[#   4]+0.086*[#   7]
          +0.086*[#   8]
    |psi|^2 = 0.899
==== e(  14) =    10.41563 eV ==== 
     psi = 0.003*[#   3]+0.003*[#   4]+0.003*[#   7]+0.003*[#   8]
    |psi|^2 = 0.013
==== e(  15) =    11.46444 eV ==== 
 
    |psi|^2 = 0.001
==== e(  16) =    13.38366 eV ==== 
 
    |psi|^2 = 0.001

 k =  -0.2199999998  0.3810511780  0.0000000000
==== e(   1) =   -18.52461 eV ==== 
     psi = 0.279*[#   1]+0.279*[#   5]+0.106*[#   3]+0.106*[#   4]+0.106*[#   7]
          +0.106*[#   8]
    |psi|^2 = 0.983
==== e(   2) =   -11.97206 eV ==== 
     psi = 0.177*[#   3]+0.177*[#   4]+0.177*[#   7]+0.177*[#   8]+0.144*[#   1]
          +0.144*[#   5]
    |psi|^2 = 0.995
==== e(   3) =   -10.44293 eV ==== 
     psi = 0.230*[#   3]+0.230*[#   4]+0.230*[#   7]+0.230*[#   8]+0.035*[#   1]
          +0.035*[#   5]
    |psi|^2 = 0.989
==== e(   4) =    -6.09577 eV ==== 
     psi = 0.497*[#   2]+0.497*[#   6]
    |psi|^2 = 0.995
==== e(   5) =     1.67885 eV ==== 
     psi = 0.488*[#   2]+0.488*[#   6]
    |psi|^2 = 0.977
==== e(   6) =     5.49397 eV ==== 
     psi = 0.003*[#   3]+0.003*[#   4]+0.003*[#   7]+0.003*[#   8]
    |psi|^2 = 0.013
==== e(   7) =     6.18276 eV ==== 
 
    |psi|^2 = 0.001
==== e(   8) =     6.40608 eV ==== 
 
    |psi|^2 = 0.001
==== e(   9) =     7.29235 eV ==== 
 
    |psi|^2 = 0.001
==== e(  10) =     7.79791 eV ==== 
     psi = 0.002*[#   1]+0.002*[#   5]
    |psi|^2 = 0.005
==== e(  11) =     9.00757 eV ==== 
     psi = 0.132*[#   1]+0.132*[#   5]+0.115*[#   3]+0.115*[#   4]+0.115*[#   7]
          +0.115*[#   8]
    |psi|^2 = 0.724
==== e(  12) =     9.25684 eV ==== 
 
    |psi|^2 = 0.000
==== e(  13) =     9.87869 eV ==== 
     psi = 0.280*[#   1]+0.280*[#   5]+0.087*[#   3]+0.087*[#   4]+0.087*[#   7]
          +0.087*[#   8]
    |psi|^2 = 0.909
==== e(  14) =    10.13258 eV ==== 
     psi = 0.004*[#   3]+0.004*[#   4]+0.004*[#   7]+0.004*[#   8]
    |psi|^2 = 0.016
==== e(  15) =    11.45978 eV ==== 
 
    |psi|^2 = 0.000
==== e(  16) =    13.19186 eV ==== 
 
    |psi|^2 = 0.002

 k =  -0.2133333331  0.3695041727  0.0000000000
==== e(   1) =   -18.71848 eV ==== 
     psi = 0.284*[#   1]+0.284*[#   5]+0.104*[#   3]+0.104*[#   4]+0.104*[#   7]
          +0.104*[#   8]
    |psi|^2 = 0.983
==== e(   2) =   -11.75489 eV ==== 
     psi = 0.179*[#   3]+0.179*[#   4]+0.179*[#   7]+0.179*[#   8]+0.139*[#   1]
          +0.139*[#   5]
    |psi|^2 = 0.995
==== e(   3) =   -10.24015 eV ==== 
     psi = 0.230*[#   3]+0.230*[#   4]+0.230*[#   7]+0.230*[#   8]+0.034*[#   1]
          +0.034*[#   5]
    |psi|^2 = 0.989
==== e(   4) =    -6.31033 eV ==== 
     psi = 0.497*[#   2]+0.497*[#   6]
    |psi|^2 = 0.994
==== e(   5) =     1.96146 eV ==== 
     psi = 0.488*[#   2]+0.488*[#   6]
    |psi|^2 = 0.975
==== e(   6) =     5.21929 eV ==== 
     psi = 0.004*[#   3]+0.004*[#   4]+0.004*[#   7]+0.004*[#   8]
    |psi|^2 = 0.015
==== e(   7) =     5.91256 eV ==== 
 
    |psi|^2 = 0.001
==== e(   8) =     6.12207 eV ==== 
 
    |psi|^2 = 0.001
==== e(   9) =     7.02564 eV ==== 
 
    |psi|^2 = 0.001
==== e(  10) =     7.51814 eV ==== 
     psi = 0.001*[#   1]+0.001*[#   5]
    |psi|^2 = 0.004
==== e(  11) =     8.81982 eV ==== 
     psi = 0.132*[#   1]+0.132*[#   5]+0.118*[#   3]+0.118*[#   4]+0.118*[#   7]
          +0.118*[#   8]
    |psi|^2 = 0.736
==== e(  12) =     9.02309 eV ==== 
 
    |psi|^2 = 0.000
==== e(  13) =     9.79280 eV ==== 
     psi = 0.280*[#   1]+0.280*[#   5]+0.089*[#   3]+0.089*[#   4]+0.089*[#   7]
          +0.089*[#   8]
    |psi|^2 = 0.916
==== e(  14) =     9.85756 eV ==== 
     psi = 0.004*[#   3]+0.004*[#   4]+0.004*[#   7]+0.004*[#   8]+0.001*[#   1]
          +0.001*[#   5]
    |psi|^2 = 0.020
==== e(  15) =    11.42129 eV ==== 
 
    |psi|^2 = 0.000
==== e(  16) =    12.92276 eV ==== 
 
    |psi|^2 = 0.002

 k =  -0.2066666665  0.3579571673  0.0000000000
==== e(   1) =   -18.90731 eV ==== 
     psi = 0.289*[#   1]+0.289*[#   5]+0.101*[#   3]+0.101*[#   4]+0.101*[#   7]
          +0.101*[#   8]
    |psi|^2 = 0.982
==== e(   2) =   -11.53377 eV ==== 
     psi = 0.182*[#   3]+0.182*[#   4]+0.182*[#   7]+0.182*[#   8]+0.134*[#   1]
          +0.134*[#   5]
    |psi|^2 = 0.996
==== e(   3) =   -10.03513 eV ==== 
     psi = 0.230*[#   3]+0.230*[#   4]+0.230*[#   7]+0.230*[#   8]+0.034*[#   1]
          +0.034*[#   5]
    |psi|^2 = 0.989
==== e(   4) =    -6.52076 eV ==== 
     psi = 0.497*[#   2]+0.497*[#   6]
    |psi|^2 = 0.993
==== e(   5) =     2.24745 eV ==== 
     psi = 0.487*[#   2]+0.487*[#   6]
    |psi|^2 = 0.974
==== e(   6) =     4.95254 eV ==== 
     psi = 0.004*[#   3]+0.004*[#   4]+0.004*[#   7]+0.004*[#   8]
    |psi|^2 = 0.017
==== e(   7) =     5.64849 eV ==== 
 
    |psi|^2 = 0.002
==== e(   8) =     5.84676 eV ==== 
 
    |psi|^2 = 0.001
==== e(   9) =     6.76453 eV ==== 
 
    |psi|^2 = 0.001
==== e(  10) =     7.24660 eV ==== 
     psi = 0.001*[#   1]+0.001*[#   5]
    |psi|^2 = 0.003
==== e(  11) =     8.63532 eV ==== 
     psi = 0.130*[#   1]+0.130*[#   5]+0.121*[#   3]+0.121*[#   4]+0.121*[#   7]
          +0.121*[#   8]
    |psi|^2 = 0.745
==== e(  12) =     8.78594 eV ==== 
 
    |psi|^2 = 0.000
==== e(  13) =     9.59074 eV ==== 
     psi = 0.005*[#   3]+0.005*[#   4]+0.005*[#   7]+0.005*[#   8]+0.002*[#   1]
          +0.002*[#   5]
    |psi|^2 = 0.025
==== e(  14) =     9.70573 eV ==== 
     psi = 0.279*[#   1]+0.279*[#   5]+0.091*[#   3]+0.091*[#   4]+0.091*[#   7]
          +0.091*[#   8]
    |psi|^2 = 0.923
==== e(  15) =    11.33746 eV ==== 
 
    |psi|^2 = 0.000
==== e(  16) =    12.66057 eV ==== 
 
    |psi|^2 = 0.003

 k =  -0.1999999998  0.3464101619  0.0000000000
==== e(   1) =   -19.09093 eV ==== 
     psi = 0.294*[#   1]+0.294*[#   5]+0.098*[#   3]+0.098*[#   4]+0.098*[#   7]
          +0.098*[#   8]
    |psi|^2 = 0.982
==== e(   2) =   -11.30887 eV ==== 
     psi = 0.185*[#   3]+0.185*[#   4]+0.185*[#   7]+0.185*[#   8]+0.128*[#   1]
          +0.128*[#   5]
    |psi|^2 = 0.996
==== e(   3) =    -9.82828 eV ==== 
     psi = 0.231*[#   3]+0.231*[#   4]+0.231*[#   7]+0.231*[#   8]+0.033*[#   1]
          +0.033*[#   5]
    |psi|^2 = 0.989
==== e(   4) =    -6.72673 eV ==== 
     psi = 0.496*[#   2]+0.496*[#   6]
    |psi|^2 = 0.992
==== e(   5) =     2.53646 eV ==== 
     psi = 0.487*[#   2]+0.487*[#   6]
    |psi|^2 = 0.973
==== e(   6) =     4.69383 eV ==== 
     psi = 0.005*[#   3]+0.005*[#   4]+0.005*[#   7]+0.005*[#   8]
    |psi|^2 = 0.019
==== e(   7) =     5.39117 eV ==== 
     psi = 0.001*[#   2]+0.001*[#   6]
    |psi|^2 = 0.002
==== e(   8) =     5.58014 eV ==== 
 
    |psi|^2 = 0.001
==== e(   9) =     6.50976 eV ==== 
 
    |psi|^2 = 0.001
==== e(  10) =     6.98340 eV ==== 
 
    |psi|^2 = 0.003
==== e(  11) =     8.45461 eV ==== 
     psi = 0.129*[#   1]+0.129*[#   5]+0.123*[#   3]+0.123*[#   4]+0.123*[#   7]
          +0.123*[#   8]
    |psi|^2 = 0.752
==== e(  12) =     8.54910 eV ==== 
 
    |psi|^2 = 0.001
==== e(  13) =     9.33226 eV ==== 
     psi = 0.007*[#   3]+0.007*[#   4]+0.007*[#   7]+0.007*[#   8]+0.002*[#   1]
          +0.002*[#   5]
    |psi|^2 = 0.031
==== e(  14) =     9.61753 eV ==== 
     psi = 0.277*[#   1]+0.277*[#   5]+0.094*[#   3]+0.094*[#   4]+0.094*[#   7]
          +0.094*[#   8]
    |psi|^2 = 0.928
==== e(  15) =    11.21194 eV ==== 
 
    |psi|^2 = 0.000
==== e(  16) =    12.40564 eV ==== 
 
    |psi|^2 = 0.003

 k =  -0.1933333331  0.3348631565  0.0000000000
==== e(   1) =   -19.26927 eV ==== 
     psi = 0.300*[#   1]+0.300*[#   5]+0.096*[#   3]+0.096*[#   4]+0.096*[#   7]
          +0.096*[#   8]
    |psi|^2 = 0.982
==== e(   2) =   -11.08034 eV ==== 
     psi = 0.187*[#   3]+0.187*[#   4]+0.187*[#   7]+0.187*[#   8]+0.123*[#   1]
          +0.123*[#   5]
    |psi|^2 = 0.996
==== e(   3) =    -9.61999 eV ==== 
     psi = 0.231*[#   3]+0.231*[#   4]+0.231*[#   7]+0.231*[#   8]+0.032*[#   1]
          +0.032*[#   5]
    |psi|^2 = 0.989
==== e(   4) =    -6.92793 eV ==== 
     psi = 0.496*[#   2]+0.496*[#   6]
    |psi|^2 = 0.991
==== e(   5) =     2.82809 eV ==== 
     psi = 0.486*[#   2]+0.486*[#   6]
    |psi|^2 = 0.972
==== e(   6) =     4.44323 eV ==== 
     psi = 0.005*[#   3]+0.005*[#   4]+0.005*[#   7]+0.005*[#   8]
    |psi|^2 = 0.021
==== e(   7) =     5.14106 eV ==== 
     psi = 0.001*[#   2]+0.001*[#   6]
    |psi|^2 = 0.003
==== e(   8) =     5.32223 eV ==== 
 
    |psi|^2 = 0.002
==== e(   9) =     6.26187 eV ==== 
 
    |psi|^2 = 0.002
==== e(  10) =     6.72860 eV ==== 
 
    |psi|^2 = 0.003
==== e(  11) =     8.27821 eV ==== 
     psi = 0.127*[#   1]+0.127*[#   5]+0.126*[#   3]+0.126*[#   4]+0.126*[#   7]
          +0.126*[#   8]
    |psi|^2 = 0.756
==== e(  12) =     8.31498 eV ==== 
 
    |psi|^2 = 0.001
==== e(  13) =     9.08223 eV ==== 
     psi = 0.008*[#   3]+0.008*[#   4]+0.008*[#   7]+0.008*[#   8]+0.003*[#   1]
          +0.003*[#   5]
    |psi|^2 = 0.038
==== e(  14) =     9.52821 eV ==== 
     psi = 0.274*[#   1]+0.274*[#   5]+0.096*[#   3]+0.096*[#   4]+0.096*[#   7]
          +0.096*[#   8]
    |psi|^2 = 0.933
==== e(  15) =    11.05617 eV ==== 
 
    |psi|^2 = 0.000
==== e(  16) =    12.15822 eV ==== 
 
    |psi|^2 = 0.003

 k =  -0.1866666665  0.3233161511  0.0000000000
==== e(   1) =   -19.44221 eV ==== 
     psi = 0.305*[#   1]+0.305*[#   5]+0.093*[#   3]+0.093*[#   4]+0.093*[#   7]
          +0.093*[#   8]
    |psi|^2 = 0.981
==== e(   2) =   -10.84842 eV ==== 
     psi = 0.190*[#   3]+0.190*[#   4]+0.190*[#   7]+0.190*[#   8]+0.118*[#   1]
          +0.118*[#   5]
    |psi|^2 = 0.996
==== e(   3) =    -9.41070 eV ==== 
     psi = 0.232*[#   3]+0.232*[#   4]+0.232*[#   7]+0.232*[#   8]+0.031*[#   1]
          +0.031*[#   5]
    |psi|^2 = 0.989
==== e(   4) =    -7.12410 eV ==== 
     psi = 0.495*[#   2]+0.495*[#   6]
    |psi|^2 = 0.990
==== e(   5) =     3.12188 eV ==== 
     psi = 0.486*[#   2]+0.486*[#   6]
    |psi|^2 = 0.971
==== e(   6) =     4.20081 eV ==== 
     psi = 0.006*[#   3]+0.006*[#   4]+0.006*[#   7]+0.006*[#   8]
    |psi|^2 = 0.023
==== e(   7) =     4.89849 eV ==== 
     psi = 0.002*[#   2]+0.002*[#   6]
    |psi|^2 = 0.003
==== e(   8) =     5.07303 eV ==== 
 
    |psi|^2 = 0.002
==== e(   9) =     6.02124 eV ==== 
     psi = 0.001*[#   2]+0.001*[#   6]
    |psi|^2 = 0.002
==== e(  10) =     6.48226 eV ==== 
 
    |psi|^2 = 0.003
==== e(  11) =     8.08519 eV ==== 
 
    |psi|^2 = 0.001
==== e(  12) =     8.10645 eV ==== 
     psi = 0.127*[#   3]+0.127*[#   4]+0.127*[#   7]+0.127*[#   8]+0.124*[#   1]
          +0.124*[#   5]
    |psi|^2 = 0.758
==== e(  13) =     8.84079 eV ==== 
     psi = 0.010*[#   3]+0.010*[#   4]+0.010*[#   7]+0.010*[#   8]+0.004*[#   1]
          +0.004*[#   5]
    |psi|^2 = 0.046
==== e(  14) =     9.43763 eV ==== 
     psi = 0.270*[#   1]+0.270*[#   5]+0.099*[#   3]+0.099*[#   4]+0.099*[#   7]
          +0.099*[#   8]
    |psi|^2 = 0.937
==== e(  15) =    10.88167 eV ==== 
 
    |psi|^2 = 0.000
==== e(  16) =    11.91849 eV ==== 
 
    |psi|^2 = 0.004

 k =  -0.1799999998  0.3117691457  0.0000000000
==== e(   1) =   -19.60964 eV ==== 
     psi = 0.311*[#   1]+0.311*[#   5]+0.090*[#   3]+0.090*[#   4]+0.090*[#   7]
          +0.090*[#   8]
    |psi|^2 = 0.981
==== e(   2) =   -10.61332 eV ==== 
     psi = 0.193*[#   3]+0.193*[#   4]+0.193*[#   7]+0.193*[#   8]+0.113*[#   1]
          +0.113*[#   5]
    |psi|^2 = 0.996
==== e(   3) =    -9.20085 eV ==== 
     psi = 0.232*[#   3]+0.232*[#   4]+0.232*[#   7]+0.232*[#   8]+0.030*[#   1]
          +0.030*[#   5]
    |psi|^2 = 0.990
==== e(   4) =    -7.31496 eV ==== 
     psi = 0.494*[#   2]+0.494*[#   6]
    |psi|^2 = 0.988
==== e(   5) =     3.41736 eV ==== 
     psi = 0.485*[#   2]+0.485*[#   6]
    |psi|^2 = 0.970
==== e(   6) =     3.96664 eV ==== 
     psi = 0.006*[#   3]+0.006*[#   4]+0.006*[#   7]+0.006*[#   8]
    |psi|^2 = 0.025
==== e(   7) =     4.66368 eV ==== 
     psi = 0.002*[#   2]+0.002*[#   6]
    |psi|^2 = 0.004
==== e(   8) =     4.83256 eV ==== 
 
    |psi|^2 = 0.002
==== e(   9) =     5.78816 eV ==== 
     psi = 0.001*[#   2]+0.001*[#   6]
    |psi|^2 = 0.003
==== e(  10) =     6.24442 eV ==== 
 
    |psi|^2 = 0.003
==== e(  11) =     7.86081 eV ==== 
 
    |psi|^2 = 0.002
==== e(  12) =     7.93969 eV ==== 
     psi = 0.129*[#   3]+0.129*[#   4]+0.129*[#   7]+0.129*[#   8]+0.122*[#   1]
          +0.122*[#   5]
    |psi|^2 = 0.758
==== e(  13) =     8.60805 eV ==== 
     psi = 0.012*[#   3]+0.012*[#   4]+0.012*[#   7]+0.012*[#   8]+0.005*[#   1]
          +0.005*[#   5]
    |psi|^2 = 0.056
==== e(  14) =     9.34564 eV ==== 
     psi = 0.264*[#   1]+0.264*[#   5]+0.103*[#   3]+0.103*[#   4]+0.103*[#   7]
          +0.103*[#   8]
    |psi|^2 = 0.940
==== e(  15) =    10.69711 eV ==== 
 
    |psi|^2 = 0.001
==== e(  16) =    11.68661 eV ==== 
     psi = 0.001*[#   3]+0.001*[#   4]+0.001*[#   7]+0.001*[#   8]
    |psi|^2 = 0.004

 k =  -0.1733333332  0.3002221403  0.0000000000
==== e(   1) =   -19.77146 eV ==== 
     psi = 0.317*[#   1]+0.317*[#   5]+0.087*[#   3]+0.087*[#   4]+0.087*[#   7]
          +0.087*[#   8]
    |psi|^2 = 0.981
==== e(   2) =   -10.37528 eV ==== 
     psi = 0.195*[#   3]+0.195*[#   4]+0.195*[#   7]+0.195*[#   8]+0.108*[#   1]
          +0.108*[#   5]
    |psi|^2 = 0.996
==== e(   3) =    -8.99091 eV ==== 
     psi = 0.233*[#   3]+0.233*[#   4]+0.233*[#   7]+0.233*[#   8]+0.028*[#   1]
          +0.028*[#   5]
    |psi|^2 = 0.990
==== e(   4) =    -7.50030 eV ==== 
     psi = 0.493*[#   2]+0.493*[#   6]
    |psi|^2 = 0.987
==== e(   5) =     3.71400 eV ==== 
     psi = 0.485*[#   2]+0.485*[#   6]
    |psi|^2 = 0.969
==== e(   6) =     3.74077 eV ==== 
     psi = 0.007*[#   3]+0.007*[#   4]+0.007*[#   7]+0.007*[#   8]
    |psi|^2 = 0.027
==== e(   7) =     4.43683 eV ==== 
     psi = 0.002*[#   2]+0.002*[#   6]
    |psi|^2 = 0.004
==== e(   8) =     4.60081 eV ==== 
 
    |psi|^2 = 0.002
==== e(   9) =     5.56285 eV ==== 
     psi = 0.002*[#   2]+0.002*[#   6]
    |psi|^2 = 0.003
==== e(  10) =     6.01510 eV ==== 
 
    |psi|^2 = 0.003
==== e(  11) =     7.64262 eV ==== 
 
    |psi|^2 = 0.002
==== e(  12) =     7.77815 eV ==== 
     psi = 0.129*[#   3]+0.129*[#   4]+0.129*[#   7]+0.129*[#   8]+0.118*[#   1]
          +0.118*[#   5]
    |psi|^2 = 0.754
==== e(  13) =     8.38414 eV ==== 
     psi = 0.014*[#   3]+0.014*[#   4]+0.014*[#   7]+0.014*[#   8]+0.006*[#   1]
          +0.006*[#   5]
    |psi|^2 = 0.069
==== e(  14) =     9.25195 eV ==== 
     psi = 0.258*[#   1]+0.258*[#   5]+0.107*[#   3]+0.107*[#   4]+0.107*[#   7]
          +0.107*[#   8]
    |psi|^2 = 0.943
==== e(  15) =    10.50834 eV ==== 
 
    |psi|^2 = 0.001
==== e(  16) =    11.46268 eV ==== 
     psi = 0.001*[#   3]+0.001*[#   4]+0.001*[#   7]+0.001*[#   8]
    |psi|^2 = 0.005

 k =  -0.1666666665  0.2886751349  0.0000000000
==== e(   1) =   -19.92763 eV ==== 
     psi = 0.324*[#   1]+0.324*[#   5]+0.084*[#   3]+0.084*[#   4]+0.084*[#   7]
          +0.084*[#   8]
    |psi|^2 = 0.981
==== e(   2) =   -10.13463 eV ==== 
     psi = 0.198*[#   3]+0.198*[#   4]+0.198*[#   7]+0.198*[#   8]+0.103*[#   1]
          +0.103*[#   5]
    |psi|^2 = 0.996
==== e(   3) =    -8.78136 eV ==== 
     psi = 0.234*[#   3]+0.234*[#   4]+0.234*[#   7]+0.234*[#   8]+0.027*[#   1]
          +0.027*[#   5]
    |psi|^2 = 0.990
==== e(   4) =    -7.67991 eV ==== 
     psi = 0.493*[#   2]+0.493*[#   6]
    |psi|^2 = 0.985
==== e(   5) =     3.52323 eV ==== 
     psi = 0.007*[#   3]+0.007*[#   4]+0.007*[#   7]+0.007*[#   8]
    |psi|^2 = 0.030
==== e(   6) =     4.01123 eV ==== 
     psi = 0.484*[#   2]+0.484*[#   6]
    |psi|^2 = 0.969
==== e(   7) =     4.21807 eV ==== 
     psi = 0.002*[#   2]+0.002*[#   6]
    |psi|^2 = 0.005
==== e(   8) =     4.37779 eV ==== 
 
    |psi|^2 = 0.003
==== e(   9) =     5.34547 eV ==== 
     psi = 0.002*[#   2]+0.002*[#   6]
    |psi|^2 = 0.004
==== e(  10) =     5.79435 eV ==== 
 
    |psi|^2 = 0.003
==== e(  11) =     7.43115 eV ==== 
     psi = 0.001*[#   2]+0.001*[#   6]
    |psi|^2 = 0.002
==== e(  12) =     7.62201 eV ==== 
     psi = 0.129*[#   3]+0.129*[#   4]+0.129*[#   7]+0.129*[#   8]+0.114*[#   1]
          +0.114*[#   5]
    |psi|^2 = 0.746
==== e(  13) =     8.16919 eV ==== 
     psi = 0.017*[#   3]+0.017*[#   4]+0.017*[#   7]+0.017*[#   8]+0.008*[#   1]
          +0.008*[#   5]
    |psi|^2 = 0.084
==== e(  14) =     9.15618 eV ==== 
     psi = 0.251*[#   1]+0.251*[#   5]+0.111*[#   3]+0.111*[#   4]+0.111*[#   7]
          +0.111*[#   8]
    |psi|^2 = 0.945
==== e(  15) =    10.31920 eV ==== 
 
    |psi|^2 = 0.001
==== e(  16) =    11.24680 eV ==== 
     psi = 0.001*[#   3]+0.001*[#   4]+0.001*[#   7]+0.001*[#   8]
    |psi|^2 = 0.005

 k =  -0.1599999998  0.2771281295  0.0000000000
==== e(   1) =   -20.07808 eV ==== 
     psi = 0.330*[#   1]+0.330*[#   5]+0.080*[#   3]+0.080*[#   4]+0.080*[#   7]
          +0.080*[#   8]
    |psi|^2 = 0.981
==== e(   2) =    -9.89164 eV ==== 
     psi = 0.200*[#   3]+0.200*[#   4]+0.200*[#   7]+0.200*[#   8]+0.098*[#   1]
          +0.098*[#   5]
    |psi|^2 = 0.997
==== e(   3) =    -8.57268 eV ==== 
     psi = 0.235*[#   3]+0.235*[#   4]+0.235*[#   7]+0.235*[#   8]+0.025*[#   1]
          +0.025*[#   5]
    |psi|^2 = 0.990
==== e(   4) =    -7.85361 eV ==== 
     psi = 0.492*[#   2]+0.492*[#   6]
    |psi|^2 = 0.983
==== e(   5) =     3.31406 eV ==== 
     psi = 0.008*[#   3]+0.008*[#   4]+0.008*[#   7]+0.008*[#   8]
    |psi|^2 = 0.031
==== e(   6) =     4.00751 eV ==== 
     psi = 0.003*[#   2]+0.003*[#   6]
    |psi|^2 = 0.005
==== e(   7) =     4.16350 eV ==== 
 
    |psi|^2 = 0.003
==== e(   8) =     4.30846 eV ==== 
     psi = 0.484*[#   2]+0.484*[#   6]
    |psi|^2 = 0.968
==== e(   9) =     5.13615 eV ==== 
     psi = 0.002*[#   2]+0.002*[#   6]
    |psi|^2 = 0.004
==== e(  10) =     5.58218 eV ==== 
 
    |psi|^2 = 0.003
==== e(  11) =     7.22681 eV ==== 
     psi = 0.001*[#   2]+0.001*[#   6]
    |psi|^2 = 0.003
==== e(  12) =     7.47138 eV ==== 
     psi = 0.129*[#   3]+0.129*[#   4]+0.129*[#   7]+0.129*[#   8]+0.109*[#   1]
          +0.109*[#   5]
    |psi|^2 = 0.734
==== e(  13) =     7.96339 eV ==== 
     psi = 0.021*[#   3]+0.021*[#   4]+0.021*[#   7]+0.021*[#   8]+0.010*[#   1]
          +0.010*[#   5]
    |psi|^2 = 0.103
==== e(  14) =     9.05791 eV ==== 
     psi = 0.242*[#   1]+0.242*[#   5]+0.116*[#   3]+0.116*[#   4]+0.116*[#   7]
          +0.116*[#   8]
    |psi|^2 = 0.947
==== e(  15) =    10.13221 eV ==== 
 
    |psi|^2 = 0.001
==== e(  16) =    11.03905 eV ==== 
     psi = 0.001*[#   3]+0.001*[#   4]+0.001*[#   7]+0.001*[#   8]
    |psi|^2 = 0.006

 k =  -0.1533333332  0.2655811241  0.0000000000
==== e(   1) =   -20.22273 eV ==== 
     psi = 0.337*[#   1]+0.337*[#   5]+0.077*[#   3]+0.077*[#   4]+0.077*[#   7]
          +0.077*[#   8]
    |psi|^2 = 0.981
==== e(   2) =    -9.64668 eV ==== 
     psi = 0.203*[#   3]+0.203*[#   4]+0.203*[#   7]+0.203*[#   8]+0.093*[#   1]
          +0.093*[#   5]
    |psi|^2 = 0.997
==== e(   3) =    -8.36541 eV ==== 
     psi = 0.236*[#   3]+0.236*[#   4]+0.236*[#   7]+0.236*[#   8]+0.024*[#   1]
          +0.024*[#   5]
    |psi|^2 = 0.990
==== e(   4) =    -8.02121 eV ==== 
     psi = 0.491*[#   2]+0.491*[#   6]
    |psi|^2 = 0.981
==== e(   5) =     3.11330 eV ==== 
     psi = 0.008*[#   3]+0.008*[#   4]+0.008*[#   7]+0.008*[#   8]
    |psi|^2 = 0.033
==== e(   6) =     3.80523 eV ==== 
     psi = 0.003*[#   2]+0.003*[#   6]
    |psi|^2 = 0.006
==== e(   7) =     3.95795 eV ==== 
 
    |psi|^2 = 0.003
==== e(   8) =     4.60501 eV ==== 
     psi = 0.484*[#   2]+0.484*[#   6]
    |psi|^2 = 0.968
==== e(   9) =     4.93500 eV ==== 
     psi = 0.002*[#   2]+0.002*[#   6]
    |psi|^2 = 0.005
==== e(  10) =     5.37861 eV ==== 
 
    |psi|^2 = 0.003
==== e(  11) =     7.02989 eV ==== 
     psi = 0.002*[#   2]+0.002*[#   6]
    |psi|^2 = 0.003
==== e(  12) =     7.32628 eV ==== 
     psi = 0.127*[#   3]+0.127*[#   4]+0.127*[#   7]+0.127*[#   8]+0.104*[#   1]
          +0.104*[#   5]
    |psi|^2 = 0.716
==== e(  13) =     7.76696 eV ==== 
     psi = 0.026*[#   3]+0.026*[#   4]+0.026*[#   7]+0.026*[#   8]+0.012*[#   1]
          +0.012*[#   5]
    |psi|^2 = 0.128
==== e(  14) =     8.95659 eV ==== 
     psi = 0.232*[#   1]+0.232*[#   5]+0.121*[#   3]+0.121*[#   4]+0.121*[#   7]
          +0.121*[#   8]
    |psi|^2 = 0.948
==== e(  15) =     9.94908 eV ==== 
 
    |psi|^2 = 0.002
==== e(  16) =    10.83947 eV ==== 
     psi = 0.002*[#   3]+0.002*[#   4]+0.002*[#   7]+0.002*[#   8]
    |psi|^2 = 0.006

 k =  -0.1466666665  0.2540341187  0.0000000000
==== e(   1) =   -20.36152 eV ==== 
     psi = 0.344*[#   1]+0.344*[#   5]+0.073*[#   3]+0.073*[#   4]+0.073*[#   7]
          +0.073*[#   8]
    |psi|^2 = 0.981
==== e(   2) =    -9.40015 eV ==== 
     psi = 0.205*[#   3]+0.205*[#   4]+0.205*[#   7]+0.205*[#   8]+0.087*[#   1]
          +0.087*[#   5]
    |psi|^2 = 0.997
==== e(   3) =    -8.18257 eV ==== 
     psi = 0.490*[#   2]+0.490*[#   6]
    |psi|^2 = 0.979
==== e(   4) =    -8.16009 eV ==== 
     psi = 0.237*[#   3]+0.237*[#   4]+0.237*[#   7]+0.237*[#   8]+0.022*[#   1]
          +0.022*[#   5]
    |psi|^2 = 0.991
==== e(   5) =     2.92097 eV ==== 
     psi = 0.009*[#   3]+0.009*[#   4]+0.009*[#   7]+0.009*[#   8]
    |psi|^2 = 0.035
==== e(   6) =     3.61131 eV ==== 
     psi = 0.003*[#   2]+0.003*[#   6]
    |psi|^2 = 0.007
==== e(   7) =     3.76114 eV ==== 
 
    |psi|^2 = 0.003
==== e(   8) =     4.74210 eV ==== 
     psi = 0.003*[#   2]+0.003*[#   6]
    |psi|^2 = 0.005
==== e(   9) =     4.90017 eV ==== 
     psi = 0.484*[#   2]+0.484*[#   6]
    |psi|^2 = 0.968
==== e(  10) =     5.18365 eV ==== 
 
    |psi|^2 = 0.003
==== e(  11) =     6.84063 eV ==== 
     psi = 0.002*[#   2]+0.002*[#   6]
    |psi|^2 = 0.004
==== e(  12) =     7.18661 eV ==== 
     psi = 0.124*[#   3]+0.124*[#   4]+0.124*[#   7]+0.124*[#   8]+0.098*[#   1]
          +0.098*[#   5]
    |psi|^2 = 0.690
==== e(  13) =     7.58020 eV ==== 
     psi = 0.032*[#   3]+0.032*[#   4]+0.032*[#   7]+0.032*[#   8]+0.015*[#   1]
          +0.015*[#   5]
    |psi|^2 = 0.159
==== e(  14) =     8.85155 eV ==== 
     psi = 0.220*[#   1]+0.220*[#   5]+0.127*[#   3]+0.127*[#   4]+0.127*[#   7]
          +0.127*[#   8]
    |psi|^2 = 0.949
==== e(  15) =     9.77097 eV ==== 
 
    |psi|^2 = 0.002
==== e(  16) =    10.64811 eV ==== 
     psi = 0.002*[#   3]+0.002*[#   4]+0.002*[#   7]+0.002*[#   8]
    |psi|^2 = 0.007

 k =  -0.1399999999  0.2424871133  0.0000000000
==== e(   1) =   -20.49443 eV ==== 
     psi = 0.351*[#   1]+0.351*[#   5]+0.070*[#   3]+0.070*[#   4]+0.070*[#   7]
          +0.070*[#   8]
    |psi|^2 = 0.981
==== e(   2) =    -9.15252 eV ==== 
     psi = 0.208*[#   3]+0.208*[#   4]+0.208*[#   7]+0.208*[#   8]+0.082*[#   1]
          +0.082*[#   5]
    |psi|^2 = 0.997
==== e(   3) =    -8.33754 eV ==== 
     psi = 0.489*[#   2]+0.489*[#   6]
    |psi|^2 = 0.977
==== e(   4) =    -7.95730 eV ==== 
     psi = 0.238*[#   3]+0.238*[#   4]+0.238*[#   7]+0.238*[#   8]+0.020*[#   1]
          +0.020*[#   5]
    |psi|^2 = 0.991
==== e(   5) =     2.73709 eV ==== 
     psi = 0.009*[#   3]+0.009*[#   4]+0.009*[#   7]+0.009*[#   8]
    |psi|^2 = 0.036
==== e(   6) =     3.42580 eV ==== 
     psi = 0.004*[#   2]+0.004*[#   6]
    |psi|^2 = 0.007
==== e(   7) =     3.57308 eV ==== 
 
    |psi|^2 = 0.004
==== e(   8) =     4.55752 eV ==== 
     psi = 0.003*[#   2]+0.003*[#   6]
    |psi|^2 = 0.006
==== e(   9) =     4.99733 eV ==== 
 
    |psi|^2 = 0.004
==== e(  10) =     5.19319 eV ==== 
     psi = 0.484*[#   2]+0.484*[#   6]
    |psi|^2 = 0.968
==== e(  11) =     6.65921 eV ==== 
     psi = 0.002*[#   2]+0.002*[#   6]
    |psi|^2 = 0.004
==== e(  12) =     7.05211 eV ==== 
     psi = 0.119*[#   3]+0.119*[#   4]+0.119*[#   7]+0.119*[#   8]+0.090*[#   1]
          +0.090*[#   5]
    |psi|^2 = 0.655
==== e(  13) =     7.40349 eV ==== 
     psi = 0.040*[#   3]+0.040*[#   4]+0.040*[#   7]+0.040*[#   8]+0.019*[#   1]
          +0.019*[#   5]
    |psi|^2 = 0.200
==== e(  14) =     8.74201 eV ==== 
     psi = 0.207*[#   1]+0.207*[#   5]+0.134*[#   3]+0.134*[#   4]+0.134*[#   7]
          +0.134*[#   8]
    |psi|^2 = 0.949
==== e(  15) =     9.59870 eV ==== 
     psi = 0.001*[#   2]+0.001*[#   6]
    |psi|^2 = 0.002
==== e(  16) =    10.46502 eV ==== 
     psi = 0.002*[#   3]+0.002*[#   4]+0.002*[#   7]+0.002*[#   8]
    |psi|^2 = 0.007

 k =  -0.1333333332  0.2309401079  0.0000000000
==== e(   1) =   -20.62139 eV ==== 
     psi = 0.359*[#   1]+0.359*[#   5]+0.066*[#   3]+0.066*[#   4]+0.066*[#   7]
          +0.066*[#   8]
    |psi|^2 = 0.981
==== e(   2) =    -8.90428 eV ==== 
     psi = 0.211*[#   3]+0.211*[#   4]+0.211*[#   7]+0.211*[#   8]+0.077*[#   1]
          +0.077*[#   5]
    |psi|^2 = 0.997
==== e(   3) =    -8.48600 eV ==== 
     psi = 0.488*[#   2]+0.488*[#   6]
    |psi|^2 = 0.975
==== e(   4) =    -7.75762 eV ==== 
     psi = 0.239*[#   3]+0.239*[#   4]+0.239*[#   7]+0.239*[#   8]+0.018*[#   1]
          +0.018*[#   5]
    |psi|^2 = 0.991
==== e(   5) =     2.56169 eV ==== 
     psi = 0.009*[#   3]+0.009*[#   4]+0.009*[#   7]+0.009*[#   8]
    |psi|^2 = 0.037
==== e(   6) =     3.24874 eV ==== 
     psi = 0.004*[#   2]+0.004*[#   6]
    |psi|^2 = 0.008
==== e(   7) =     3.39375 eV ==== 
 
    |psi|^2 = 0.004
==== e(   8) =     4.38132 eV ==== 
     psi = 0.003*[#   2]+0.003*[#   6]
    |psi|^2 = 0.006
==== e(   9) =     4.81964 eV ==== 
 
    |psi|^2 = 0.004
==== e(  10) =     5.48323 eV ==== 
     psi = 0.484*[#   2]+0.484*[#   6]
    |psi|^2 = 0.968
==== e(  11) =     6.48575 eV ==== 
     psi = 0.002*[#   2]+0.002*[#   6]
    |psi|^2 = 0.004
==== e(  12) =     6.92245 eV ==== 
     psi = 0.111*[#   3]+0.111*[#   4]+0.111*[#   7]+0.111*[#   8]+0.081*[#   1]
          +0.081*[#   5]
    |psi|^2 = 0.608
==== e(  13) =     7.23733 eV ==== 
     psi = 0.051*[#   3]+0.051*[#   4]+0.051*[#   7]+0.051*[#   8]+0.024*[#   1]
          +0.024*[#   5]
    |psi|^2 = 0.252
==== e(  14) =     8.62720 eV ==== 
     psi = 0.192*[#   1]+0.192*[#   5]+0.141*[#   3]+0.141*[#   4]+0.141*[#   7]
          +0.141*[#   8]
    |psi|^2 = 0.949
==== e(  15) =     9.43287 eV ==== 
     psi = 0.001*[#   2]+0.001*[#   6]
    |psi|^2 = 0.002
==== e(  16) =    10.29023 eV ==== 
     psi = 0.002*[#   3]+0.002*[#   4]+0.002*[#   7]+0.002*[#   8]
    |psi|^2 = 0.007

 k =  -0.1266666665  0.2193931025  0.0000000000
==== e(   1) =   -20.74237 eV ==== 
     psi = 0.367*[#   1]+0.367*[#   5]+0.062*[#   3]+0.062*[#   4]+0.062*[#   7]
          +0.062*[#   8]
    |psi|^2 = 0.982
==== e(   2) =    -8.65602 eV ==== 
     psi = 0.213*[#   3]+0.213*[#   4]+0.213*[#   7]+0.213*[#   8]+0.072*[#   1]
          +0.072*[#   5]
    |psi|^2 = 0.997
==== e(   3) =    -8.62783 eV ==== 
     psi = 0.487*[#   2]+0.487*[#   6]
    |psi|^2 = 0.973
==== e(   4) =    -7.56169 eV ==== 
     psi = 0.240*[#   3]+0.240*[#   4]+0.240*[#   7]+0.240*[#   8]+0.016*[#   1]
          +0.016*[#   5]
    |psi|^2 = 0.992
==== e(   5) =     2.39477 eV ==== 
     psi = 0.009*[#   3]+0.009*[#   4]+0.009*[#   7]+0.009*[#   8]
    |psi|^2 = 0.038
==== e(   6) =     3.08018 eV ==== 
     psi = 0.004*[#   2]+0.004*[#   6]
    |psi|^2 = 0.009
==== e(   7) =     3.22317 eV ==== 
 
    |psi|^2 = 0.004
==== e(   8) =     4.21353 eV ==== 
     psi = 0.004*[#   2]+0.004*[#   6]
    |psi|^2 = 0.007
==== e(   9) =     4.65060 eV ==== 
 
    |psi|^2 = 0.004
==== e(  10) =     5.76941 eV ==== 
     psi = 0.485*[#   2]+0.485*[#   6]
    |psi|^2 = 0.969
==== e(  11) =     6.32038 eV ==== 
     psi = 0.002*[#   2]+0.002*[#   6]
    |psi|^2 = 0.005
==== e(  12) =     6.79708 eV ==== 
     psi = 0.101*[#   3]+0.101*[#   4]+0.101*[#   7]+0.101*[#   8]+0.071*[#   1]
          +0.071*[#   5]
    |psi|^2 = 0.547
==== e(  13) =     7.08235 eV ==== 
     psi = 0.065*[#   3]+0.065*[#   4]+0.065*[#   7]+0.065*[#   8]+0.030*[#   1]
          +0.030*[#   5]
    |psi|^2 = 0.319
==== e(  14) =     8.50621 eV ==== 
     psi = 0.176*[#   1]+0.176*[#   5]+0.149*[#   3]+0.149*[#   4]+0.149*[#   7]
          +0.149*[#   8]
    |psi|^2 = 0.949
==== e(  15) =     9.27392 eV ==== 
     psi = 0.001*[#   2]+0.001*[#   6]
    |psi|^2 = 0.003
==== e(  16) =    10.12376 eV ==== 
     psi = 0.002*[#   3]+0.002*[#   4]+0.002*[#   7]+0.002*[#   8]
    |psi|^2 = 0.008

 k =  -0.1199999999  0.2078460971  0.0000000000
==== e(   1) =   -20.85733 eV ==== 
     psi = 0.375*[#   1]+0.375*[#   5]+0.058*[#   3]+0.058*[#   4]+0.058*[#   7]
          +0.058*[#   8]
    |psi|^2 = 0.982
==== e(   2) =    -8.76291 eV ==== 
     psi = 0.485*[#   2]+0.485*[#   6]
    |psi|^2 = 0.971
==== e(   3) =    -8.40836 eV ==== 
     psi = 0.216*[#   3]+0.216*[#   4]+0.216*[#   7]+0.216*[#   8]+0.067*[#   1]
          +0.067*[#   5]
    |psi|^2 = 0.997
==== e(   4) =    -7.37012 eV ==== 
     psi = 0.241*[#   3]+0.241*[#   4]+0.241*[#   7]+0.241*[#   8]+0.015*[#   1]
          +0.015*[#   5]
    |psi|^2 = 0.992
==== e(   5) =     2.23637 eV ==== 
     psi = 0.009*[#   3]+0.009*[#   4]+0.009*[#   7]+0.009*[#   8]
    |psi|^2 = 0.038
==== e(   6) =     2.92014 eV ==== 
     psi = 0.005*[#   2]+0.005*[#   6]
    |psi|^2 = 0.009
==== e(   7) =     3.06134 eV ==== 
 
    |psi|^2 = 0.004
==== e(   8) =     4.05421 eV ==== 
     psi = 0.004*[#   2]+0.004*[#   6]
    |psi|^2 = 0.008
==== e(   9) =     4.49022 eV ==== 
     psi = 0.001*[#   3]+0.001*[#   4]+0.001*[#   7]+0.001*[#   8]
    |psi|^2 = 0.004
==== e(  10) =     6.05082 eV ==== 
     psi = 0.485*[#   2]+0.485*[#   6]
    |psi|^2 = 0.970
==== e(  11) =     6.16318 eV ==== 
     psi = 0.003*[#   2]+0.003*[#   6]
    |psi|^2 = 0.005
==== e(  12) =     6.67541 eV ==== 
     psi = 0.088*[#   3]+0.088*[#   4]+0.088*[#   7]+0.088*[#   8]+0.060*[#   1]
          +0.060*[#   5]
    |psi|^2 = 0.471
==== e(  13) =     6.93923 eV ==== 
     psi = 0.082*[#   3]+0.082*[#   4]+0.082*[#   7]+0.082*[#   8]+0.036*[#   1]
          +0.036*[#   5]
    |psi|^2 = 0.399
==== e(  14) =     8.37817 eV ==== 
     psi = 0.158*[#   1]+0.158*[#   5]+0.158*[#   3]+0.158*[#   4]+0.158*[#   7]
          +0.158*[#   8]
    |psi|^2 = 0.949
==== e(  15) =     9.12219 eV ==== 
     psi = 0.001*[#   2]+0.001*[#   6]
    |psi|^2 = 0.003
==== e(  16) =     9.96564 eV ==== 
     psi = 0.002*[#   3]+0.002*[#   4]+0.002*[#   7]+0.002*[#   8]
    |psi|^2 = 0.008

 k =  -0.1133333332  0.1962990917  0.0000000000
==== e(   1) =   -20.96624 eV ==== 
     psi = 0.383*[#   1]+0.383*[#   5]+0.054*[#   3]+0.054*[#   4]+0.054*[#   7]
          +0.054*[#   8]
    |psi|^2 = 0.982
==== e(   2) =    -8.89116 eV ==== 
     psi = 0.484*[#   2]+0.484*[#   6]
    |psi|^2 = 0.969
==== e(   3) =    -8.16206 eV ==== 
     psi = 0.218*[#   3]+0.218*[#   4]+0.218*[#   7]+0.218*[#   8]+0.062*[#   1]
          +0.062*[#   5]
    |psi|^2 = 0.997
==== e(   4) =    -7.18359 eV ==== 
     psi = 0.242*[#   3]+0.242*[#   4]+0.242*[#   7]+0.242*[#   8]+0.013*[#   1]
          +0.013*[#   5]
    |psi|^2 = 0.992
==== e(   5) =     2.08649 eV ==== 
     psi = 0.009*[#   3]+0.009*[#   4]+0.009*[#   7]+0.009*[#   8]
    |psi|^2 = 0.038
==== e(   6) =     2.76865 eV ==== 
     psi = 0.005*[#   2]+0.005*[#   6]
    |psi|^2 = 0.010
==== e(   7) =     2.90825 eV ==== 
     psi = 0.001*[#   3]+0.001*[#   4]+0.001*[#   7]+0.001*[#   8]
    |psi|^2 = 0.004
==== e(   8) =     3.90337 eV ==== 
     psi = 0.004*[#   2]+0.004*[#   6]
    |psi|^2 = 0.008
==== e(   9) =     4.33850 eV ==== 
     psi = 0.001*[#   3]+0.001*[#   4]+0.001*[#   7]+0.001*[#   8]
    |psi|^2 = 0.004
==== e(  10) =     6.01423 eV ==== 
     psi = 0.003*[#   2]+0.003*[#   6]
    |psi|^2 = 0.006
==== e(  11) =     6.32644 eV ==== 
     psi = 0.485*[#   2]+0.485*[#   6]
    |psi|^2 = 0.971
==== e(  12) =     6.55689 eV ==== 
     psi = 0.073*[#   3]+0.073*[#   4]+0.073*[#   7]+0.073*[#   8]+0.048*[#   1]
          +0.048*[#   5]
    |psi|^2 = 0.387
==== e(  13) =     6.80852 eV ==== 
     psi = 0.101*[#   3]+0.101*[#   4]+0.101*[#   7]+0.101*[#   8]+0.043*[#   1]
          +0.043*[#   5]
    |psi|^2 = 0.489
==== e(  14) =     8.24231 eV ==== 
     psi = 0.167*[#   3]+0.167*[#   4]+0.167*[#   7]+0.167*[#   8]+0.140*[#   1]
          +0.140*[#   5]
    |psi|^2 = 0.948
==== e(  15) =     8.97792 eV ==== 
     psi = 0.002*[#   2]+0.002*[#   6]
    |psi|^2 = 0.003
==== e(  16) =     9.81589 eV ==== 
     psi = 0.002*[#   3]+0.002*[#   4]+0.002*[#   7]+0.002*[#   8]
    |psi|^2 = 0.008

 k =  -0.1066666666  0.1847520863  0.0000000000
==== e(   1) =   -21.06906 eV ==== 
     psi = 0.391*[#   1]+0.391*[#   5]+0.050*[#   3]+0.050*[#   4]+0.050*[#   7]
          +0.050*[#   8]
    |psi|^2 = 0.982
==== e(   2) =    -9.01249 eV ==== 
     psi = 0.483*[#   2]+0.483*[#   6]
    |psi|^2 = 0.966
==== e(   3) =    -7.91791 eV ==== 
     psi = 0.221*[#   3]+0.221*[#   4]+0.221*[#   7]+0.221*[#   8]+0.057*[#   1]
          +0.057*[#   5]
    |psi|^2 = 0.997
==== e(   4) =    -7.00275 eV ==== 
     psi = 0.243*[#   3]+0.243*[#   4]+0.243*[#   7]+0.243*[#   8]+0.011*[#   1]
          +0.011*[#   5]
    |psi|^2 = 0.993
==== e(   5) =     1.94514 eV ==== 
     psi = 0.009*[#   3]+0.009*[#   4]+0.009*[#   7]+0.009*[#   8]
    |psi|^2 = 0.037
==== e(   6) =     2.62574 eV ==== 
     psi = 0.005*[#   2]+0.005*[#   6]
    |psi|^2 = 0.011
==== e(   7) =     2.76391 eV ==== 
     psi = 0.001*[#   3]+0.001*[#   4]+0.001*[#   7]+0.001*[#   8]
    |psi|^2 = 0.004
==== e(   8) =     3.76106 eV ==== 
     psi = 0.004*[#   2]+0.004*[#   6]
    |psi|^2 = 0.009
==== e(   9) =     4.19545 eV ==== 
     psi = 0.001*[#   3]+0.001*[#   4]+0.001*[#   7]+0.001*[#   8]
    |psi|^2 = 0.005
==== e(  10) =     5.87358 eV ==== 
     psi = 0.003*[#   2]+0.003*[#   6]
    |psi|^2 = 0.006
==== e(  11) =     6.44135 eV ==== 
     psi = 0.057*[#   3]+0.057*[#   4]+0.057*[#   7]+0.057*[#   8]+0.037*[#   1]
          +0.037*[#   5]
    |psi|^2 = 0.301
==== e(  12) =     6.59525 eV ==== 
     psi = 0.486*[#   2]+0.486*[#   6]
    |psi|^2 = 0.972
==== e(  13) =     6.69042 eV ==== 
     psi = 0.120*[#   3]+0.120*[#   4]+0.120*[#   7]+0.120*[#   8]+0.049*[#   1]
          +0.049*[#   5]
    |psi|^2 = 0.579
==== e(  14) =     8.09808 eV ==== 
     psi = 0.176*[#   3]+0.176*[#   4]+0.176*[#   7]+0.176*[#   8]+0.121*[#   1]
          +0.121*[#   5]
    |psi|^2 = 0.948
==== e(  15) =     8.84132 eV ==== 
     psi = 0.002*[#   2]+0.002*[#   6]
    |psi|^2 = 0.004
==== e(  16) =     9.67452 eV ==== 
     psi = 0.002*[#   3]+0.002*[#   4]+0.002*[#   7]+0.002*[#   8]
    |psi|^2 = 0.008

 k =  -0.0999999999  0.1732050809  0.0000000000
==== e(   1) =   -21.16577 eV ==== 
     psi = 0.400*[#   1]+0.400*[#   5]+0.046*[#   3]+0.046*[#   4]+0.046*[#   7]
          +0.046*[#   8]
    |psi|^2 = 0.982
==== e(   2) =    -9.12681 eV ==== 
     psi = 0.482*[#   2]+0.482*[#   6]
    |psi|^2 = 0.964
==== e(   3) =    -7.67685 eV ==== 
     psi = 0.223*[#   3]+0.223*[#   4]+0.223*[#   7]+0.223*[#   8]+0.052*[#   1]
          +0.052*[#   5]
    |psi|^2 = 0.997
==== e(   4) =    -6.82829 eV ==== 
     psi = 0.244*[#   3]+0.244*[#   4]+0.244*[#   7]+0.244*[#   8]+0.009*[#   1]
          +0.009*[#   5]
    |psi|^2 = 0.994
==== e(   5) =     1.81233 eV ==== 
     psi = 0.009*[#   3]+0.009*[#   4]+0.009*[#   7]+0.009*[#   8]
    |psi|^2 = 0.037
==== e(   6) =     2.49142 eV ==== 
     psi = 0.006*[#   2]+0.006*[#   6]
    |psi|^2 = 0.011
==== e(   7) =     2.62832 eV ==== 
 
    |psi|^2 = 0.004
==== e(   8) =     3.62728 eV ==== 
     psi = 0.005*[#   2]+0.005*[#   6]
    |psi|^2 = 0.009
==== e(   9) =     4.06107 eV ==== 
     psi = 0.001*[#   3]+0.001*[#   4]+0.001*[#   7]+0.001*[#   8]
    |psi|^2 = 0.005
==== e(  10) =     5.74129 eV ==== 
     psi = 0.003*[#   2]+0.003*[#   6]
    |psi|^2 = 0.007
==== e(  11) =     6.32908 eV ==== 
     psi = 0.042*[#   3]+0.042*[#   4]+0.042*[#   7]+0.042*[#   8]+0.027*[#   1]
          +0.027*[#   5]
    |psi|^2 = 0.224
==== e(  12) =     6.58461 eV ==== 
     psi = 0.139*[#   3]+0.139*[#   4]+0.139*[#   7]+0.139*[#   8]+0.053*[#   1]
          +0.053*[#   5]
    |psi|^2 = 0.661
==== e(  13) =     6.85614 eV ==== 
     psi = 0.487*[#   2]+0.487*[#   6]
    |psi|^2 = 0.973
==== e(  14) =     7.94525 eV ==== 
     psi = 0.186*[#   3]+0.186*[#   4]+0.186*[#   7]+0.186*[#   8]+0.102*[#   1]
          +0.102*[#   5]
    |psi|^2 = 0.947
==== e(  15) =     8.71254 eV ==== 
     psi = 0.002*[#   2]+0.002*[#   6]
    |psi|^2 = 0.004
==== e(  16) =     9.54156 eV ==== 
     psi = 0.002*[#   3]+0.002*[#   4]+0.002*[#   7]+0.002*[#   8]
    |psi|^2 = 0.008

 k =  -0.0933333332  0.1616580755  0.0000000000
==== e(   1) =   -21.25635 eV ==== 
     psi = 0.408*[#   1]+0.408*[#   5]+0.042*[#   3]+0.042*[#   4]+0.042*[#   7]
          +0.042*[#   8]
    |psi|^2 = 0.982
==== e(   2) =    -9.23406 eV ==== 
     psi = 0.481*[#   2]+0.481*[#   6]
    |psi|^2 = 0.962
==== e(   3) =    -7.43990 eV ==== 
     psi = 0.226*[#   3]+0.226*[#   4]+0.226*[#   7]+0.226*[#   8]+0.047*[#   1]
          +0.047*[#   5]
    |psi|^2 = 0.997
==== e(   4) =    -6.66091 eV ==== 
     psi = 0.245*[#   3]+0.245*[#   4]+0.245*[#   7]+0.245*[#   8]+0.008*[#   1]
          +0.008*[#   5]
    |psi|^2 = 0.994
==== e(   5) =     1.68807 eV ==== 
     psi = 0.009*[#   3]+0.009*[#   4]+0.009*[#   7]+0.009*[#   8]
    |psi|^2 = 0.035
==== e(   6) =     2.36572 eV ==== 
     psi = 0.006*[#   2]+0.006*[#   6]
    |psi|^2 = 0.012
==== e(   7) =     2.50148 eV ==== 
 
    |psi|^2 = 0.004
==== e(   8) =     3.50207 eV ==== 
     psi = 0.005*[#   2]+0.005*[#   6]
    |psi|^2 = 0.010
==== e(   9) =     3.93536 eV ==== 
     psi = 0.001*[#   3]+0.001*[#   4]+0.001*[#   7]+0.001*[#   8]
    |psi|^2 = 0.005
==== e(  10) =     5.61739 eV ==== 
     psi = 0.004*[#   2]+0.004*[#   6]
    |psi|^2 = 0.007
==== e(  11) =     6.22080 eV ==== 
     psi = 0.031*[#   3]+0.031*[#   4]+0.031*[#   7]+0.031*[#   8]+0.020*[#   1]
          +0.020*[#   5]
    |psi|^2 = 0.161
==== e(  12) =     6.49028 eV ==== 
     psi = 0.155*[#   3]+0.155*[#   4]+0.155*[#   7]+0.155*[#   8]+0.055*[#   1]
          +0.055*[#   5]
    |psi|^2 = 0.729
==== e(  13) =     7.10797 eV ==== 
     psi = 0.487*[#   2]+0.487*[#   6]
    |psi|^2 = 0.975
==== e(  14) =     7.78407 eV ==== 
     psi = 0.195*[#   3]+0.195*[#   4]+0.195*[#   7]+0.195*[#   8]+0.083*[#   1]
          +0.083*[#   5]
    |psi|^2 = 0.947
==== e(  15) =     8.59170 eV ==== 
     psi = 0.002*[#   2]+0.002*[#   6]
    |psi|^2 = 0.004
==== e(  16) =     9.41703 eV ==== 
     psi = 0.002*[#   3]+0.002*[#   4]+0.002*[#   7]+0.002*[#   8]
    |psi|^2 = 0.008

 k =  -0.0866666666  0.1501110701  0.0000000000
==== e(   1) =   -21.34078 eV ==== 
     psi = 0.417*[#   1]+0.417*[#   5]+0.037*[#   3]+0.037*[#   4]+0.037*[#   7]
          +0.037*[#   8]
    |psi|^2 = 0.983
==== e(   2) =    -9.33416 eV ==== 
     psi = 0.480*[#   2]+0.480*[#   6]
    |psi|^2 = 0.960
==== e(   3) =    -7.20822 eV ==== 
     psi = 0.228*[#   3]+0.228*[#   4]+0.228*[#   7]+0.228*[#   8]+0.042*[#   1]
          +0.042*[#   5]
    |psi|^2 = 0.998
==== e(   4) =    -6.50129 eV ==== 
     psi = 0.246*[#   3]+0.246*[#   4]+0.246*[#   7]+0.246*[#   8]+0.006*[#   1]
          +0.006*[#   5]
    |psi|^2 = 0.995
==== e(   5) =     1.57237 eV ==== 
     psi = 0.008*[#   3]+0.008*[#   4]+0.008*[#   7]+0.008*[#   8]
    |psi|^2 = 0.034
==== e(   6) =     2.24863 eV ==== 
     psi = 0.006*[#   2]+0.006*[#   6]
    |psi|^2 = 0.013
==== e(   7) =     2.38339 eV ==== 
 
    |psi|^2 = 0.004
==== e(   8) =     3.38543 eV ==== 
     psi = 0.005*[#   2]+0.005*[#   6]
    |psi|^2 = 0.011
==== e(   9) =     3.81832 eV ==== 
     psi = 0.001*[#   3]+0.001*[#   4]+0.001*[#   7]+0.001*[#   8]
    |psi|^2 = 0.005
==== e(  10) =     5.50193 eV ==== 
     psi = 0.004*[#   2]+0.004*[#   6]
    |psi|^2 = 0.007
==== e(  11) =     6.11743 eV ==== 
     psi = 0.022*[#   3]+0.022*[#   4]+0.022*[#   7]+0.022*[#   8]+0.014*[#   1]
          +0.014*[#   5]
    |psi|^2 = 0.114
==== e(  12) =     6.40642 eV ==== 
     psi = 0.168*[#   3]+0.168*[#   4]+0.168*[#   7]+0.168*[#   8]+0.054*[#   1]
          +0.054*[#   5]
    |psi|^2 = 0.781
==== e(  13) =     7.34957 eV ==== 
     psi = 0.488*[#   2]+0.488*[#   6]
    |psi|^2 = 0.977
==== e(  14) =     7.61541 eV ==== 
     psi = 0.204*[#   3]+0.204*[#   4]+0.204*[#   7]+0.204*[#   8]+0.066*[#   1]
          +0.066*[#   5]
    |psi|^2 = 0.946
==== e(  15) =     8.47890 eV ==== 
     psi = 0.002*[#   2]+0.002*[#   6]
    |psi|^2 = 0.004
==== e(  16) =     9.30093 eV ==== 
     psi = 0.002*[#   3]+0.002*[#   4]+0.002*[#   7]+0.002*[#   8]
    |psi|^2 = 0.007

 k =  -0.0799999999  0.1385640647  0.0000000000
==== e(   1) =   -21.41901 eV ==== 
     psi = 0.425*[#   1]+0.425*[#   5]+0.033*[#   3]+0.033*[#   4]+0.033*[#   7]
          +0.033*[#   8]
    |psi|^2 = 0.983
==== e(   2) =    -9.42707 eV ==== 
     psi = 0.479*[#   2]+0.479*[#   6]
    |psi|^2 = 0.958
==== e(   3) =    -6.98310 eV ==== 
     psi = 0.231*[#   3]+0.231*[#   4]+0.231*[#   7]+0.231*[#   8]+0.037*[#   1]
          +0.037*[#   5]
    |psi|^2 = 0.998
==== e(   4) =    -6.35012 eV ==== 
     psi = 0.246*[#   3]+0.246*[#   4]+0.246*[#   7]+0.246*[#   8]+0.005*[#   1]
          +0.005*[#   5]
    |psi|^2 = 0.995
==== e(   5) =     1.46524 eV ==== 
     psi = 0.008*[#   3]+0.008*[#   4]+0.008*[#   7]+0.008*[#   8]
    |psi|^2 = 0.032
==== e(   6) =     2.14018 eV ==== 
     psi = 0.007*[#   2]+0.007*[#   6]
    |psi|^2 = 0.013
==== e(   7) =     2.27405 eV ==== 
 
    |psi|^2 = 0.004
==== e(   8) =     3.27739 eV ==== 
     psi = 0.006*[#   2]+0.006*[#   6]
    |psi|^2 = 0.011
==== e(   9) =     3.70997 eV ==== 
 
    |psi|^2 = 0.004
==== e(  10) =     5.39493 eV ==== 
     psi = 0.004*[#   2]+0.004*[#   6]
    |psi|^2 = 0.008
==== e(  11) =     6.01982 eV ==== 
     psi = 0.015*[#   3]+0.015*[#   4]+0.015*[#   7]+0.015*[#   8]+0.010*[#   1]
          +0.010*[#   5]
    |psi|^2 = 0.080
==== e(  12) =     6.33204 eV ==== 
     psi = 0.179*[#   3]+0.179*[#   4]+0.179*[#   7]+0.179*[#   8]+0.052*[#   1]
          +0.052*[#   5]
    |psi|^2 = 0.821
==== e(  13) =     7.44078 eV ==== 
     psi = 0.211*[#   3]+0.211*[#   4]+0.211*[#   7]+0.211*[#   8]+0.051*[#   1]
          +0.051*[#   5]
    |psi|^2 = 0.946
==== e(  14) =     7.57973 eV ==== 
     psi = 0.489*[#   2]+0.489*[#   6]
    |psi|^2 = 0.979
==== e(  15) =     8.37423 eV ==== 
     psi = 0.002*[#   2]+0.002*[#   6]
    |psi|^2 = 0.004
==== e(  16) =     9.19329 eV ==== 
     psi = 0.002*[#   3]+0.002*[#   4]+0.002*[#   7]+0.002*[#   8]
    |psi|^2 = 0.007

 k =  -0.0733333333  0.1270170593  0.0000000000
==== e(   1) =   -21.49106 eV ==== 
     psi = 0.434*[#   1]+0.434*[#   5]+0.029*[#   3]+0.029*[#   4]+0.029*[#   7]
          +0.029*[#   8]
    |psi|^2 = 0.983
==== e(   2) =    -9.51272 eV ==== 
     psi = 0.478*[#   2]+0.478*[#   6]
    |psi|^2 = 0.956
==== e(   3) =    -6.76597 eV ==== 
     psi = 0.233*[#   3]+0.233*[#   4]+0.233*[#   7]+0.233*[#   8]+0.033*[#   1]
          +0.033*[#   5]
    |psi|^2 = 0.998
==== e(   4) =    -6.20809 eV ==== 
     psi = 0.247*[#   3]+0.247*[#   4]+0.247*[#   7]+0.247*[#   8]+0.004*[#   1]
          +0.004*[#   5]
    |psi|^2 = 0.996
==== e(   5) =     1.36667 eV ==== 
     psi = 0.007*[#   3]+0.007*[#   4]+0.007*[#   7]+0.007*[#   8]
    |psi|^2 = 0.029
==== e(   6) =     2.04037 eV ==== 
     psi = 0.007*[#   2]+0.007*[#   6]
    |psi|^2 = 0.014
==== e(   7) =     2.17346 eV ==== 
 
    |psi|^2 = 0.003
==== e(   8) =     3.17795 eV ==== 
     psi = 0.006*[#   2]+0.006*[#   6]
    |psi|^2 = 0.012
==== e(   9) =     3.61029 eV ==== 
 
    |psi|^2 = 0.004
==== e(  10) =     5.29642 eV ==== 
     psi = 0.004*[#   2]+0.004*[#   6]
    |psi|^2 = 0.008
==== e(  11) =     5.92869 eV ==== 
     psi = 0.010*[#   3]+0.010*[#   4]+0.010*[#   7]+0.010*[#   8]+0.007*[#   1]
          +0.007*[#   5]
    |psi|^2 = 0.056
==== e(  12) =     6.26627 eV ==== 
     psi = 0.189*[#   3]+0.189*[#   4]+0.189*[#   7]+0.189*[#   8]+0.048*[#   1]
          +0.048*[#   5]
    |psi|^2 = 0.851
==== e(  13) =     7.26238 eV ==== 
     psi = 0.218*[#   3]+0.218*[#   4]+0.218*[#   7]+0.218*[#   8]+0.037*[#   1]
          +0.037*[#   5]
    |psi|^2 = 0.946
==== e(  14) =     7.79725 eV ==== 
     psi = 0.490*[#   2]+0.490*[#   6]
    |psi|^2 = 0.980
==== e(  15) =     8.27775 eV ==== 
     psi = 0.002*[#   2]+0.002*[#   6]
    |psi|^2 = 0.005
==== e(  16) =     9.09414 eV ==== 
     psi = 0.002*[#   3]+0.002*[#   4]+0.002*[#   7]+0.002*[#   8]
    |psi|^2 = 0.007

 k =  -0.0666666666  0.1154700540  0.0000000000
==== e(   1) =   -21.55690 eV ==== 
     psi = 0.442*[#   1]+0.442*[#   5]+0.025*[#   3]+0.025*[#   4]+0.025*[#   7]
          +0.025*[#   8]
    |psi|^2 = 0.983
==== e(   2) =    -9.59108 eV ==== 
     psi = 0.477*[#   2]+0.477*[#   6]
    |psi|^2 = 0.955
==== e(   3) =    -6.55839 eV ==== 
     psi = 0.235*[#   3]+0.235*[#   4]+0.235*[#   7]+0.235*[#   8]+0.028*[#   1]
          +0.028*[#   5]
    |psi|^2 = 0.997
==== e(   4) =    -6.07585 eV ==== 
     psi = 0.248*[#   3]+0.248*[#   4]+0.248*[#   7]+0.248*[#   8]+0.003*[#   1]
          +0.003*[#   5]
    |psi|^2 = 0.996
==== e(   5) =     1.27667 eV ==== 
     psi = 0.006*[#   3]+0.006*[#   4]+0.006*[#   7]+0.006*[#   8]
    |psi|^2 = 0.027
==== e(   6) =     1.94922 eV ==== 
     psi = 0.007*[#   2]+0.007*[#   6]
    |psi|^2 = 0.014
==== e(   7) =     2.08162 eV ==== 
 
    |psi|^2 = 0.003
==== e(   8) =     3.08713 eV ==== 
[...]
     psi = 0.498*[#   2]+0.498*[#   6]
    |psi|^2 = 0.996
==== e(   5) =    -1.62691 eV ==== 
     psi = 0.494*[#   2]+0.494*[#   6]
    |psi|^2 = 0.989
==== e(   6) =     8.41348 eV ==== 
     psi = 0.001*[#   2]+0.001*[#   6]
    |psi|^2 = 0.002
==== e(   7) =    10.10164 eV ==== 
     psi = 0.042*[#   1]+0.042*[#   5]+0.013*[#   3]+0.013*[#   4]+0.013*[#   7]
          +0.013*[#   8]
    |psi|^2 = 0.136
==== e(   8) =    10.15165 eV ==== 
     psi = 0.156*[#   1]+0.156*[#   5]+0.046*[#   3]+0.046*[#   4]+0.046*[#   7]
          +0.046*[#   8]
    |psi|^2 = 0.497
==== e(   9) =    10.57031 eV ==== 
     psi = 0.046*[#   1]+0.046*[#   5]+0.023*[#   3]+0.023*[#   4]+0.023*[#   7]
          +0.023*[#   8]
    |psi|^2 = 0.185
==== e(  10) =    11.47168 eV ==== 
 
    |psi|^2 = 0.000
==== e(  11) =    11.63531 eV ==== 
     psi = 0.005*[#   1]+0.005*[#   5]+0.002*[#   3]+0.002*[#   4]+0.002*[#   7]
          +0.002*[#   8]
    |psi|^2 = 0.017
==== e(  12) =    11.66234 eV ==== 
 
    |psi|^2 = 0.001
==== e(  13) =    11.84265 eV ==== 
 
    |psi|^2 = 0.000
==== e(  14) =    12.60911 eV ==== 
 
    |psi|^2 = 0.000
==== e(  15) =    12.67408 eV ==== 
     psi = 0.042*[#   1]+0.042*[#   5]+0.021*[#   3]+0.021*[#   4]+0.021*[#   7]
          +0.021*[#   8]
    |psi|^2 = 0.168
==== e(  16) =    12.88521 eV ==== 
     psi = 0.002*[#   1]+0.002*[#   5]
    |psi|^2 = 0.008

 k =  -0.2799999997  0.5773502697  0.0000000000
==== e(   1) =   -15.45321 eV ==== 
     psi = 0.254*[#   1]+0.254*[#   5]+0.121*[#   3]+0.121*[#   4]+0.121*[#   7]
          +0.121*[#   8]
    |psi|^2 = 0.993
==== e(   2) =   -14.73447 eV ==== 
     psi = 0.187*[#   1]+0.187*[#   5]+0.154*[#   3]+0.154*[#   4]+0.154*[#   7]
          +0.154*[#   8]
    |psi|^2 = 0.990
==== e(   3) =   -12.55175 eV ==== 
     psi = 0.233*[#   3]+0.233*[#   4]+0.233*[#   7]+0.233*[#   8]+0.025*[#   1]
          +0.025*[#   5]
    |psi|^2 = 0.984
==== e(   4) =    -3.04045 eV ==== 
     psi = 0.498*[#   2]+0.498*[#   6]
    |psi|^2 = 0.996
==== e(   5) =    -1.69648 eV ==== 
     psi = 0.495*[#   2]+0.495*[#   6]
    |psi|^2 = 0.990
==== e(   6) =     8.38070 eV ==== 
 
    |psi|^2 = 0.002
==== e(   7) =    10.15402 eV ==== 
     psi = 0.047*[#   1]+0.047*[#   5]+0.014*[#   3]+0.014*[#   4]+0.014*[#   7]
          +0.014*[#   8]
    |psi|^2 = 0.151
==== e(   8) =    10.23813 eV ==== 
     psi = 0.139*[#   1]+0.139*[#   5]+0.041*[#   3]+0.041*[#   4]+0.041*[#   7]
          +0.041*[#   8]
    |psi|^2 = 0.444
==== e(   9) =    10.67533 eV ==== 
     psi = 0.054*[#   1]+0.054*[#   5]+0.026*[#   3]+0.026*[#   4]+0.026*[#   7]
          +0.026*[#   8]
    |psi|^2 = 0.211
==== e(  10) =    11.56165 eV ==== 
 
    |psi|^2 = 0.000
==== e(  11) =    11.72249 eV ==== 
     psi = 0.005*[#   1]+0.005*[#   5]+0.002*[#   3]+0.002*[#   4]+0.002*[#   7]
          +0.002*[#   8]
    |psi|^2 = 0.019
==== e(  12) =    11.75131 eV ==== 
 
    |psi|^2 = 0.001
==== e(  13) =    11.92383 eV ==== 
 
    |psi|^2 = 0.000
==== e(  14) =    12.69913 eV ==== 
 
    |psi|^2 = 0.000
==== e(  15) =    12.72992 eV ==== 
     psi = 0.047*[#   1]+0.047*[#   5]+0.023*[#   3]+0.023*[#   4]+0.023*[#   7]
          +0.023*[#   8]
    |psi|^2 = 0.185
==== e(  16) =    12.95868 eV ==== 
     psi = 0.003*[#   1]+0.003*[#   5]+0.001*[#   3]+0.001*[#   4]+0.001*[#   7]
          +0.001*[#   8]
    |psi|^2 = 0.011

 k =  -0.2866666664  0.5773502697  0.0000000000
==== e(   1) =   -15.39626 eV ==== 
     psi = 0.252*[#   1]+0.252*[#   5]+0.123*[#   3]+0.123*[#   4]+0.123*[#   7]
          +0.123*[#   8]
    |psi|^2 = 0.993
==== e(   2) =   -14.73148 eV ==== 
     psi = 0.195*[#   1]+0.195*[#   5]+0.150*[#   3]+0.150*[#   4]+0.150*[#   7]
          +0.150*[#   8]
    |psi|^2 = 0.991
==== e(   3) =   -12.63403 eV ==== 
     psi = 0.236*[#   3]+0.236*[#   4]+0.236*[#   7]+0.236*[#   8]+0.021*[#   1]
          +0.021*[#   5]
    |psi|^2 = 0.984
==== e(   4) =    -2.96085 eV ==== 
     psi = 0.498*[#   2]+0.498*[#   6]
    |psi|^2 = 0.995
==== e(   5) =    -1.76901 eV ==== 
     psi = 0.495*[#   2]+0.495*[#   6]
    |psi|^2 = 0.990
==== e(   6) =     8.35176 eV ==== 
 
    |psi|^2 = 0.001
==== e(   7) =    10.20530 eV ==== 
     psi = 0.051*[#   1]+0.051*[#   5]+0.016*[#   3]+0.016*[#   4]+0.016*[#   7]
          +0.016*[#   8]
    |psi|^2 = 0.166
==== e(   8) =    10.31263 eV ==== 
     psi = 0.127*[#   1]+0.127*[#   5]+0.038*[#   3]+0.038*[#   4]+0.038*[#   7]
          +0.038*[#   8]
    |psi|^2 = 0.404
==== e(   9) =    10.77665 eV ==== 
     psi = 0.057*[#   1]+0.057*[#   5]+0.026*[#   3]+0.026*[#   4]+0.026*[#   7]
          +0.026*[#   8]
    |psi|^2 = 0.219
==== e(  10) =    11.65376 eV ==== 
 
    |psi|^2 = 0.000
==== e(  11) =    11.81147 eV ==== 
     psi = 0.006*[#   1]+0.006*[#   5]+0.002*[#   3]+0.002*[#   4]+0.002*[#   7]
          +0.002*[#   8]
    |psi|^2 = 0.021
==== e(  12) =    11.84216 eV ==== 
 
    |psi|^2 = 0.001
==== e(  13) =    12.00652 eV ==== 
 
    |psi|^2 = 0.000
==== e(  14) =    12.78473 eV ==== 
     psi = 0.051*[#   1]+0.051*[#   5]+0.025*[#   3]+0.025*[#   4]+0.025*[#   7]
          +0.025*[#   8]
    |psi|^2 = 0.203
==== e(  15) =    12.79131 eV ==== 
 
    |psi|^2 = 0.000
==== e(  16) =    13.02987 eV ==== 
     psi = 0.005*[#   1]+0.005*[#   5]+0.002*[#   3]+0.002*[#   4]+0.002*[#   7]
          +0.002*[#   8]
    |psi|^2 = 0.017

 k =  -0.2933333330  0.5773502697  0.0000000000
==== e(   1) =   -15.33799 eV ==== 
     psi = 0.249*[#   1]+0.249*[#   5]+0.124*[#   3]+0.124*[#   4]+0.124*[#   7]
          +0.124*[#   8]
    |psi|^2 = 0.993
==== e(   2) =   -14.73598 eV ==== 
     psi = 0.202*[#   1]+0.202*[#   5]+0.147*[#   3]+0.147*[#   4]+0.147*[#   7]
          +0.147*[#   8]
    |psi|^2 = 0.992
==== e(   3) =   -12.70734 eV ==== 
     psi = 0.238*[#   3]+0.238*[#   4]+0.238*[#   7]+0.238*[#   8]+0.016*[#   1]
          +0.016*[#   5]
    |psi|^2 = 0.983
==== e(   4) =    -2.87948 eV ==== 
     psi = 0.498*[#   2]+0.498*[#   6]
    |psi|^2 = 0.995
==== e(   5) =    -1.84444 eV ==== 
     psi = 0.496*[#   2]+0.496*[#   6]
    |psi|^2 = 0.991
==== e(   6) =     8.32676 eV ==== 
 
    |psi|^2 = 0.001
==== e(   7) =    10.25520 eV ==== 
     psi = 0.056*[#   1]+0.056*[#   5]+0.018*[#   3]+0.018*[#   4]+0.018*[#   7]
          +0.018*[#   8]
    |psi|^2 = 0.183
==== e(   8) =    10.37688 eV ==== 
     psi = 0.118*[#   1]+0.118*[#   5]+0.036*[#   3]+0.036*[#   4]+0.036*[#   7]
          +0.036*[#   8]
    |psi|^2 = 0.379
==== e(   9) =    10.86928 eV ==== 
     psi = 0.054*[#   1]+0.054*[#   5]+0.025*[#   3]+0.025*[#   4]+0.025*[#   7]
          +0.025*[#   8]
    |psi|^2 = 0.208
==== e(  10) =    11.74803 eV ==== 
 
    |psi|^2 = 0.000
==== e(  11) =    11.90217 eV ==== 
     psi = 0.006*[#   1]+0.006*[#   5]+0.003*[#   3]+0.003*[#   4]+0.003*[#   7]
          +0.003*[#   8]
    |psi|^2 = 0.024
==== e(  12) =    11.93476 eV ==== 
 
    |psi|^2 = 0.001
==== e(  13) =    12.09021 eV ==== 
 
    |psi|^2 = 0.000
==== e(  14) =    12.83851 eV ==== 
     psi = 0.056*[#   1]+0.056*[#   5]+0.027*[#   3]+0.027*[#   4]+0.027*[#   7]
          +0.027*[#   8]
    |psi|^2 = 0.220
==== e(  15) =    12.88565 eV ==== 
 
    |psi|^2 = 0.000
==== e(  16) =    13.09536 eV ==== 
     psi = 0.008*[#   1]+0.008*[#   5]+0.003*[#   3]+0.003*[#   4]+0.003*[#   7]
          +0.003*[#   8]
    |psi|^2 = 0.030

 k =  -0.2999999997  0.5773502697  0.0000000000
==== e(   1) =   -15.27842 eV ==== 
     psi = 0.247*[#   1]+0.247*[#   5]+0.125*[#   3]+0.125*[#   4]+0.125*[#   7]
          +0.125*[#   8]
    |psi|^2 = 0.993
==== e(   2) =   -14.74895 eV ==== 
     psi = 0.209*[#   1]+0.209*[#   5]+0.144*[#   3]+0.144*[#   4]+0.144*[#   7]
          +0.144*[#   8]
    |psi|^2 = 0.992
==== e(   3) =   -12.77061 eV ==== 
     psi = 0.240*[#   3]+0.240*[#   4]+0.240*[#   7]+0.240*[#   8]+0.012*[#   1]
          +0.012*[#   5]
    |psi|^2 = 0.982
==== e(   4) =    -2.79635 eV ==== 
     psi = 0.498*[#   2]+0.498*[#   6]
    |psi|^2 = 0.995
==== e(   5) =    -1.92274 eV ==== 
     psi = 0.496*[#   2]+0.496*[#   6]
    |psi|^2 = 0.992
==== e(   6) =     8.30573 eV ==== 
 
    |psi|^2 = 0.001
==== e(   7) =    10.30341 eV ==== 
     psi = 0.062*[#   1]+0.062*[#   5]+0.020*[#   3]+0.020*[#   4]+0.020*[#   7]
          +0.020*[#   8]
    |psi|^2 = 0.202
==== e(   8) =    10.43153 eV ==== 
     psi = 0.113*[#   1]+0.113*[#   5]+0.034*[#   3]+0.034*[#   4]+0.034*[#   7]
          +0.034*[#   8]
    |psi|^2 = 0.364
==== e(   9) =    10.94903 eV ==== 
     psi = 0.047*[#   1]+0.047*[#   5]+0.022*[#   3]+0.022*[#   4]+0.022*[#   7]
          +0.022*[#   8]
    |psi|^2 = 0.181
==== e(  10) =    11.84444 eV ==== 
 
    |psi|^2 = 0.000
==== e(  11) =    11.99452 eV ==== 
     psi = 0.007*[#   1]+0.007*[#   5]+0.003*[#   3]+0.003*[#   4]+0.003*[#   7]
          +0.003*[#   8]
    |psi|^2 = 0.027
==== e(  12) =    12.02893 eV ==== 
 
    |psi|^2 = 0.001
==== e(  13) =    12.17405 eV ==== 
 
    |psi|^2 = 0.000
==== e(  14) =    12.89141 eV ==== 
     psi = 0.060*[#   1]+0.060*[#   5]+0.029*[#   3]+0.029*[#   4]+0.029*[#   7]
          +0.029*[#   8]
    |psi|^2 = 0.236
==== e(  15) =    12.98213 eV ==== 
 
    |psi|^2 = 0.000
==== e(  16) =    13.14618 eV ==== 
     psi = 0.017*[#   1]+0.017*[#   5]+0.007*[#   3]+0.007*[#   4]+0.007*[#   7]
          +0.007*[#   8]
    |psi|^2 = 0.061

 k =  -0.3066666664  0.5773502697  0.0000000000
==== e(   1) =   -15.21753 eV ==== 
     psi = 0.244*[#   1]+0.244*[#   5]+0.126*[#   3]+0.126*[#   4]+0.126*[#   7]
          +0.126*[#   8]
    |psi|^2 = 0.993
==== e(   2) =   -14.77129 eV ==== 
     psi = 0.216*[#   1]+0.216*[#   5]+0.140*[#   3]+0.140*[#   4]+0.140*[#   7]
          +0.140*[#   8]
    |psi|^2 = 0.993
==== e(   3) =   -12.82291 eV ==== 
     psi = 0.242*[#   3]+0.242*[#   4]+0.242*[#   7]+0.242*[#   8]+0.008*[#   1]
          +0.008*[#   5]
    |psi|^2 = 0.982
==== e(   4) =    -2.71146 eV ==== 
     psi = 0.497*[#   2]+0.497*[#   6]
    |psi|^2 = 0.995
==== e(   5) =    -2.00384 eV ==== 
     psi = 0.496*[#   2]+0.496*[#   6]
    |psi|^2 = 0.992
==== e(   6) =     8.28868 eV ==== 
 
    |psi|^2 = 0.000
==== e(   7) =    10.34958 eV ==== 
     psi = 0.068*[#   1]+0.068*[#   5]+0.022*[#   3]+0.022*[#   4]+0.022*[#   7]
          +0.022*[#   8]
    |psi|^2 = 0.223
==== e(   8) =    10.47613 eV ==== 
     psi = 0.111*[#   1]+0.111*[#   5]+0.034*[#   3]+0.034*[#   4]+0.034*[#   7]
          +0.034*[#   8]
    |psi|^2 = 0.358
==== e(   9) =    11.01276 eV ==== 
     psi = 0.036*[#   1]+0.036*[#   5]+0.017*[#   3]+0.017*[#   4]+0.017*[#   7]
          +0.017*[#   8]
    |psi|^2 = 0.142
==== e(  10) =    11.94299 eV ==== 
 
    |psi|^2 = 0.000
==== e(  11) =    12.08843 eV ==== 
     psi = 0.008*[#   1]+0.008*[#   5]+0.004*[#   3]+0.004*[#   4]+0.004*[#   7]
          +0.004*[#   8]
    |psi|^2 = 0.031
==== e(  12) =    12.12447 eV ==== 
 
    |psi|^2 = 0.002
==== e(  13) =    12.25643 eV ==== 
 
    |psi|^2 = 0.000
==== e(  14) =    12.94371 eV ==== 
     psi = 0.064*[#   1]+0.064*[#   5]+0.031*[#   3]+0.031*[#   4]+0.031*[#   7]
          +0.031*[#   8]
    |psi|^2 = 0.250
==== e(  15) =    13.08077 eV ==== 
 
    |psi|^2 = 0.000
==== e(  16) =    13.14991 eV ==== 
     psi = 0.035*[#   1]+0.035*[#   5]+0.015*[#   3]+0.015*[#   4]+0.015*[#   7]
          +0.015*[#   8]
    |psi|^2 = 0.130

 k =  -0.3133333330  0.5773502697  0.0000000000
==== e(   1) =   -15.15533 eV ==== 
     psi = 0.241*[#   1]+0.241*[#   5]+0.128*[#   3]+0.128*[#   4]+0.128*[#   7]
          +0.128*[#   8]
    |psi|^2 = 0.994
==== e(   2) =   -14.80358 eV ==== 
     psi = 0.222*[#   1]+0.222*[#   5]+0.137*[#   3]+0.137*[#   4]+0.137*[#   7]
          +0.137*[#   8]
    |psi|^2 = 0.993
==== e(   3) =   -12.86358 eV ==== 
     psi = 0.243*[#   3]+0.243*[#   4]+0.243*[#   7]+0.243*[#   8]+0.004*[#   1]
          +0.004*[#   5]
    |psi|^2 = 0.981
==== e(   4) =    -2.62484 eV ==== 
     psi = 0.497*[#   2]+0.497*[#   6]
    |psi|^2 = 0.995
==== e(   5) =    -2.08766 eV ==== 
     psi = 0.496*[#   2]+0.496*[#   6]
    |psi|^2 = 0.993
==== e(   6) =     8.27560 eV ==== 
 
    |psi|^2 = 0.000
==== e(   7) =    10.39340 eV ==== 
     psi = 0.075*[#   1]+0.075*[#   5]+0.024*[#   3]+0.024*[#   4]+0.024*[#   7]
          +0.024*[#   8]
    |psi|^2 = 0.245
==== e(   8) =    10.50909 eV ==== 
     psi = 0.109*[#   1]+0.109*[#   5]+0.034*[#   3]+0.034*[#   4]+0.034*[#   7]
          +0.034*[#   8]
    |psi|^2 = 0.355
==== e(   9) =    11.05881 eV ==== 
     psi = 0.024*[#   1]+0.024*[#   5]+0.012*[#   3]+0.012*[#   4]+0.012*[#   7]
          +0.012*[#   8]
    |psi|^2 = 0.097
==== e(  10) =    12.04369 eV ==== 
 
    |psi|^2 = 0.000
==== e(  11) =    12.18379 eV ==== 
     psi = 0.009*[#   1]+0.009*[#   5]+0.004*[#   3]+0.004*[#   4]+0.004*[#   7]
          +0.004*[#   8]
    |psi|^2 = 0.035
==== e(  12) =    12.22110 eV ==== 
     psi = 0.001*[#   1]+0.001*[#   5]
    |psi|^2 = 0.004
==== e(  13) =    12.33383 eV ==== 
 
    |psi|^2 = 0.000
==== e(  14) =    12.99584 eV ==== 
     psi = 0.067*[#   1]+0.067*[#   5]+0.032*[#   3]+0.032*[#   4]+0.032*[#   7]
          +0.032*[#   8]
    |psi|^2 = 0.261
==== e(  15) =    13.04644 eV ==== 
     psi = 0.034*[#   1]+0.034*[#   5]+0.015*[#   3]+0.015*[#   4]+0.015*[#   7]
          +0.015*[#   8]
    |psi|^2 = 0.130
==== e(  16) =    13.07271 eV ==== 
 
    |psi|^2 = 0.000

 k =  -0.3199999997  0.5773502697  0.0000000000
==== e(   1) =   -15.09182 eV ==== 
     psi = 0.239*[#   1]+0.239*[#   5]+0.129*[#   3]+0.129*[#   4]+0.129*[#   7]
          +0.129*[#   8]
    |psi|^2 = 0.994
==== e(   2) =   -14.84609 eV ==== 
     psi = 0.227*[#   1]+0.227*[#   5]+0.135*[#   3]+0.135*[#   4]+0.135*[#   7]
          +0.135*[#   8]
    |psi|^2 = 0.993
==== e(   3) =   -12.89233 eV ==== 
     psi = 0.244*[#   3]+0.244*[#   4]+0.244*[#   7]+0.244*[#   8]+0.002*[#   1]
          +0.002*[#   5]
    |psi|^2 = 0.981
==== e(   4) =    -2.53648 eV ==== 
     psi = 0.497*[#   2]+0.497*[#   6]
    |psi|^2 = 0.994
==== e(   5) =    -2.17412 eV ==== 
     psi = 0.497*[#   2]+0.497*[#   6]
    |psi|^2 = 0.993
==== e(   6) =     8.26640 eV ==== 
 
    |psi|^2 = 0.000
==== e(   7) =    10.43453 eV ==== 
     psi = 0.082*[#   1]+0.082*[#   5]+0.026*[#   3]+0.026*[#   4]+0.026*[#   7]
          +0.026*[#   8]
    |psi|^2 = 0.269
==== e(   8) =    10.52775 eV ==== 
     psi = 0.108*[#   1]+0.108*[#   5]+0.034*[#   3]+0.034*[#   4]+0.034*[#   7]
          +0.034*[#   8]
    |psi|^2 = 0.351
==== e(   9) =    11.08746 eV ==== 
     psi = 0.012*[#   1]+0.012*[#   5]+0.008*[#   3]+0.008*[#   4]+0.008*[#   7]
          +0.008*[#   8]
    |psi|^2 = 0.054
==== e(  10) =    12.14653 eV ==== 
 
    |psi|^2 = 0.000
==== e(  11) =    12.28049 eV ==== 
     psi = 0.011*[#   1]+0.011*[#   5]+0.005*[#   3]+0.005*[#   4]+0.005*[#   7]
          +0.005*[#   8]
    |psi|^2 = 0.040
==== e(  12) =    12.31847 eV ==== 
     psi = 0.002*[#   1]+0.002*[#   5]
    |psi|^2 = 0.008
==== e(  13) =    12.39712 eV ==== 
 
    |psi|^2 = 0.000
==== e(  14) =    12.88029 eV ==== 
     psi = 0.022*[#   1]+0.022*[#   5]+0.010*[#   3]+0.010*[#   4]+0.010*[#   7]
          +0.010*[#   8]
    |psi|^2 = 0.085
==== e(  15) =    12.94562 eV ==== 
 
    |psi|^2 = 0.000
==== e(  16) =    13.04839 eV ==== 
     psi = 0.069*[#   1]+0.069*[#   5]+0.033*[#   3]+0.033*[#   4]+0.033*[#   7]
          +0.033*[#   8]
    |psi|^2 = 0.269

 k =  -0.3266666663  0.5773502698  0.0000000000
==== e(   1) =   -15.02700 eV ==== 
     psi = 0.236*[#   1]+0.236*[#   5]+0.130*[#   3]+0.130*[#   4]+0.130*[#   7]
          +0.130*[#   8]
    |psi|^2 = 0.994
==== e(   2) =   -14.89869 eV ==== 
     psi = 0.231*[#   1]+0.231*[#   5]+0.133*[#   3]+0.133*[#   4]+0.133*[#   7]
          +0.133*[#   8]
    |psi|^2 = 0.994
==== e(   3) =   -12.90922 eV ==== 
     psi = 0.245*[#   3]+0.245*[#   4]+0.245*[#   7]+0.245*[#   8]
    |psi|^2 = 0.981
==== e(   4) =    -2.44640 eV ==== 
     psi = 0.497*[#   2]+0.497*[#   6]
    |psi|^2 = 0.994
==== e(   5) =    -2.26314 eV ==== 
     psi = 0.497*[#   2]+0.497*[#   6]
    |psi|^2 = 0.993
==== e(   6) =     8.26100 eV ==== 
 
    |psi|^2 = 0.000
==== e(   7) =    10.47265 eV ==== 
     psi = 0.090*[#   1]+0.090*[#   5]+0.029*[#   3]+0.029*[#   4]+0.029*[#   7]
          +0.029*[#   8]
    |psi|^2 = 0.294
==== e(   8) =    10.52849 eV ==== 
     psi = 0.104*[#   1]+0.104*[#   5]+0.033*[#   3]+0.033*[#   4]+0.033*[#   7]
          +0.033*[#   8]
    |psi|^2 = 0.342
==== e(   9) =    11.10132 eV ==== 
     psi = 0.004*[#   3]+0.004*[#   4]+0.004*[#   7]+0.004*[#   8]+0.003*[#   1]
          +0.003*[#   5]
    |psi|^2 = 0.023
==== e(  10) =    12.25151 eV ==== 
 
    |psi|^2 = 0.000
==== e(  11) =    12.37836 eV ==== 
     psi = 0.012*[#   1]+0.012*[#   5]+0.005*[#   3]+0.005*[#   4]+0.005*[#   7]
          +0.005*[#   8]
    |psi|^2 = 0.045
==== e(  12) =    12.41554 eV ==== 
     psi = 0.004*[#   1]+0.004*[#   5]+0.002*[#   3]+0.002*[#   4]+0.002*[#   7]
          +0.002*[#   8]
    |psi|^2 = 0.015
==== e(  13) =    12.42028 eV ==== 
 
    |psi|^2 = 0.000
==== e(  14) =    12.69539 eV ==== 
     psi = 0.013*[#   1]+0.013*[#   5]+0.006*[#   3]+0.006*[#   4]+0.006*[#   7]
          +0.006*[#   8]
    |psi|^2 = 0.050
==== e(  15) =    12.83494 eV ==== 
 
    |psi|^2 = 0.000
==== e(  16) =    13.10206 eV ==== 
     psi = 0.070*[#   1]+0.070*[#   5]+0.033*[#   3]+0.033*[#   4]+0.033*[#   7]
          +0.033*[#   8]
    |psi|^2 = 0.272

 k =  -0.3333333330  0.5773502698  0.0000000000
==== e(   1) =   -14.96089 eV ==== 
     psi = 0.234*[#   1]+0.234*[#   5]+0.131*[#   3]+0.131*[#   4]+0.131*[#   7]
          +0.131*[#   8]
    |psi|^2 = 0.994
==== e(   2) =   -14.96089 eV ==== 
     psi = 0.234*[#   1]+0.234*[#   5]+0.131*[#   3]+0.131*[#   4]+0.131*[#   7]
          +0.131*[#   8]
    |psi|^2 = 0.994
==== e(   3) =   -12.91470 eV ==== 
     psi = 0.245*[#   3]+0.245*[#   4]+0.245*[#   7]+0.245*[#   8]
    |psi|^2 = 0.981
==== e(   4) =    -2.35460 eV ==== 
     psi = 0.497*[#   2]+0.497*[#   6]
    |psi|^2 = 0.994
==== e(   5) =    -2.35460 eV ==== 
     psi = 0.497*[#   2]+0.497*[#   6]
    |psi|^2 = 0.994
==== e(   6) =     8.25924 eV ==== 
 
    |psi|^2 = 0.000
==== e(   7) =    10.50744 eV ==== 
     psi = 0.098*[#   1]+0.098*[#   5]+0.031*[#   3]+0.031*[#   4]+0.031*[#   7]
          +0.031*[#   8]
    |psi|^2 = 0.321
==== e(   8) =    10.50744 eV ==== 
     psi = 0.098*[#   1]+0.098*[#   5]+0.031*[#   3]+0.031*[#   4]+0.031*[#   7]
          +0.031*[#   8]
    |psi|^2 = 0.321
==== e(   9) =    11.10482 eV ==== 
     psi = 0.003*[#   3]+0.003*[#   4]+0.003*[#   7]+0.003*[#   8]
    |psi|^2 = 0.012
==== e(  10) =    12.35862 eV ==== 
 
    |psi|^2 = 0.000
==== e(  11) =    12.35862 eV ==== 
 
    |psi|^2 = 0.000
==== e(  12) =    12.47725 eV ==== 
     psi = 0.014*[#   1]+0.014*[#   5]+0.006*[#   3]+0.006*[#   4]+0.006*[#   7]
          +0.006*[#   8]
    |psi|^2 = 0.052
==== e(  13) =    12.47725 eV ==== 
     psi = 0.014*[#   1]+0.014*[#   5]+0.006*[#   3]+0.006*[#   4]+0.006*[#   7]
          +0.006*[#   8]
    |psi|^2 = 0.052
==== e(  14) =    12.53722 eV ==== 
 
    |psi|^2 = 0.001
==== e(  15) =    12.79495 eV ==== 
 
    |psi|^2 = 0.000
==== e(  16) =    13.15763 eV ==== 
     psi = 0.070*[#   1]+0.070*[#   5]+0.033*[#   3]+0.033*[#   4]+0.033*[#   7]
          +0.033*[#   8]
    |psi|^2 = 0.271

Lowdin Charges: 

     Atom #   1: total charge =   3.9536, s =  0.9096, 
     Atom #   1: total charge =   3.9536, p =  3.0440, pz=  0.9834, px=  1.0303, py=  1.0303, 
     Atom #   2: total charge =   3.9536, s =  0.9096, 
     Atom #   2: total charge =   3.9536, p =  3.0440, pz=  0.9834, px=  1.0303, py=  1.0303, 
     Spilling Parameter:   0.0116
 
     PROJWFC      :      0.53s CPU      1.02s WALL

 
   This run was terminated on:  16:51: 0  21Nov2023            

=------------------------------------------------------------------------------=
   JOB DONE.
=------------------------------------------------------------------------------=
