
     Program PROJWFC v.7.2 starts on 10Dec2023 at 19:50:57 

     This program is part of the open-source Quantum ESPRESSO suite
     for quantum simulation of materials; please cite
         "P. Giannozzi et al., J. Phys.:Condens. Matter 21 395502 (2009);
         "P. Giannozzi et al., J. Phys.:Condens. Matter 29 465901 (2017);
         "P. Giannozzi et al., J. Chem. Phys. 152 154105 (2020);
          URL http://www.quantum-espresso.org", 
     in publications or presentations arising from this work. More details at
     http://www.quantum-espresso.org/quote

     Parallel version (MPI & OpenMP), running on       1 processor cores
     Number of MPI processes:                 1
     Threads/MPI process:                     1

     MPI processes distributed on     1 nodes
     510640 MiB available memory on the printing compute node when the environment starts


     Reading xml data from directory:

     ../SCF/out/graphene.save/
     file C.pbe-n-kjpaw_psl.1.0.0.UPF: wavefunction(s)  2S 2P renormalized

     IMPORTANT: XC functional enforced from input :
     Exchange-correlation= PBE
                           (   1   4   3   4   0   0   0)
     Any further DFT definition will be discarded
     Please, verify this is what you really want


     G-vector sticks info
     --------------------
     sticks:   dense  smooth     PW     G-vecs:    dense   smooth      PW
     Sum         595     301     91                96043    34107    6065

     Using Slab Decomposition


     Check: negative core charge=   -0.000002

     negative rho (up, down):  1.822E-04 0.000E+00

     Gaussian broadening (read from input): ngauss,degauss=   0    0.010000


     Calling projwave .... 
     Subspace diagonalization in iterative solution of the eigenvalue problem:
     a serial algorithm will be used


  Problem Sizes 
  natomwfc =            8
  nbnd     =           16
  nkstot   =          151
  npwx     =         4284
  nkb      =           16


     Atomic states used for projection
     (read from pseudopotential files):

     state #   1: atom   1 (C  ), wfc  1 (l=0 m= 1)
     state #   2: atom   1 (C  ), wfc  2 (l=1 m= 1)
     state #   3: atom   1 (C  ), wfc  2 (l=1 m= 2)
     state #   4: atom   1 (C  ), wfc  2 (l=1 m= 3)
     state #   5: atom   2 (C  ), wfc  1 (l=0 m= 1)
     state #   6: atom   2 (C  ), wfc  2 (l=1 m= 1)
     state #   7: atom   2 (C  ), wfc  2 (l=1 m= 2)
     state #   8: atom   2 (C  ), wfc  2 (l=1 m= 3)

 k =  -0.3333333330  0.5773502698  0.0000000000
==== e(   1) =   -14.95989 eV ==== 
     psi = 0.234*[#   1]+0.234*[#   5]+0.131*[#   3]+0.131*[#   4]+0.131*[#   7]
          +0.131*[#   8]
    |psi|^2 = 0.994
==== e(   2) =   -14.95989 eV ==== 
     psi = 0.234*[#   1]+0.234*[#   5]+0.131*[#   3]+0.131*[#   4]+0.131*[#   7]
          +0.131*[#   8]
    |psi|^2 = 0.994
==== e(   3) =   -12.91443 eV ==== 
     psi = 0.245*[#   3]+0.245*[#   4]+0.245*[#   7]+0.245*[#   8]
    |psi|^2 = 0.981
==== e(   4) =    -2.35376 eV ==== 
     psi = 0.497*[#   2]+0.497*[#   6]
    |psi|^2 = 0.994
==== e(   5) =    -2.35376 eV ==== 
     psi = 0.497*[#   2]+0.497*[#   6]
    |psi|^2 = 0.994
==== e(   6) =     8.25774 eV ==== 

    |psi|^2 = 0.000
==== e(   7) =    10.50489 eV ==== 
     psi = 0.097*[#   1]+0.097*[#   5]+0.031*[#   3]+0.031*[#   4]+0.031*[#   7]
          +0.031*[#   8]
    |psi|^2 = 0.319
==== e(   8) =    10.50489 eV ==== 
     psi = 0.097*[#   1]+0.097*[#   5]+0.031*[#   3]+0.031*[#   4]+0.031*[#   7]
          +0.031*[#   8]
    |psi|^2 = 0.319
==== e(   9) =    11.09726 eV ==== 
     psi = 0.003*[#   3]+0.003*[#   4]+0.003*[#   7]+0.003*[#   8]
    |psi|^2 = 0.012
==== e(  10) =    12.31789 eV ==== 

    |psi|^2 = 0.000
==== e(  11) =    12.31789 eV ==== 

    |psi|^2 = 0.000
==== e(  12) =    12.41160 eV ==== 
     psi = 0.013*[#   1]+0.013*[#   5]+0.006*[#   3]+0.006*[#   4]+0.006*[#   7]
          +0.006*[#   8]
    |psi|^2 = 0.048
==== e(  13) =    12.41160 eV ==== 
     psi = 0.013*[#   1]+0.013*[#   5]+0.006*[#   3]+0.006*[#   4]+0.006*[#   7]
          +0.006*[#   8]
    |psi|^2 = 0.048
==== e(  14) =    12.46741 eV ==== 

    |psi|^2 = 0.001
==== e(  15) =    12.72990 eV ==== 

    |psi|^2 = 0.000
==== e(  16) =    13.11942 eV ==== 
     psi = 0.069*[#   1]+0.069*[#   5]+0.032*[#   3]+0.032*[#   4]+0.032*[#   7]
          +0.032*[#   8]
    |psi|^2 = 0.266

 k =  -0.3266666663  0.5658032644  0.0000000000
==== e(   1) =   -15.10986 eV ==== 
     psi = 0.237*[#   1]+0.237*[#   5]+0.130*[#   3]+0.130*[#   4]+0.130*[#   7]
          +0.130*[#   8]
    |psi|^2 = 0.993
==== e(   2) =   -14.82375 eV ==== 
     psi = 0.229*[#   1]+0.229*[#   5]+0.134*[#   3]+0.134*[#   4]+0.134*[#   7]
          +0.134*[#   8]
    |psi|^2 = 0.994
==== e(   3) =   -12.89425 eV ==== 
     psi = 0.245*[#   3]+0.245*[#   4]+0.245*[#   7]+0.245*[#   8]+0.002*[#   1]
          +0.002*[#   5]
    |psi|^2 = 0.981
==== e(   4) =    -2.54361 eV ==== 
     psi = 0.497*[#   2]+0.497*[#   6]
    |psi|^2 = 0.994
==== e(   5) =    -2.16504 eV ==== 
     psi = 0.497*[#   2]+0.497*[#   6]
    |psi|^2 = 0.993
==== e(   6) =     8.26432 eV ==== 

    |psi|^2 = 0.000
==== e(   7) =    10.38708 eV ==== 
     psi = 0.075*[#   1]+0.075*[#   5]+0.024*[#   3]+0.024*[#   4]+0.024*[#   7]
          +0.024*[#   8]
    |psi|^2 = 0.244
==== e(   8) =    10.56423 eV ==== 
     psi = 0.115*[#   1]+0.115*[#   5]+0.037*[#   3]+0.037*[#   4]+0.037*[#   7]
          +0.037*[#   8]
    |psi|^2 = 0.376
==== e(   9) =    11.09128 eV ==== 
     psi = 0.012*[#   1]+0.012*[#   5]+0.008*[#   3]+0.008*[#   4]+0.008*[#   7]
          +0.008*[#   8]
    |psi|^2 = 0.054
==== e(  10) =    12.00420 eV ==== 

    |psi|^2 = 0.000
==== e(  11) =    12.02602 eV ==== 
     psi = 0.004*[#   1]+0.004*[#   5]+0.002*[#   3]+0.002*[#   4]+0.002*[#   7]
          +0.002*[#   8]
    |psi|^2 = 0.014
==== e(  12) =    12.53870 eV ==== 

    |psi|^2 = 0.000
==== e(  13) =    12.61366 eV ==== 
     psi = 0.016*[#   1]+0.016*[#   5]+0.007*[#   3]+0.007*[#   4]+0.007*[#   7]
          +0.007*[#   8]
    |psi|^2 = 0.061
==== e(  14) =    12.64581 eV ==== 
     psi = 0.011*[#   1]+0.011*[#   5]+0.005*[#   3]+0.005*[#   4]+0.005*[#   7]
          +0.005*[#   8]
    |psi|^2 = 0.044
==== e(  15) =    12.78015 eV ==== 

    |psi|^2 = 0.000
==== e(  16) =    12.98196 eV ==== 
     psi = 0.046*[#   1]+0.046*[#   5]+0.022*[#   3]+0.022*[#   4]+0.022*[#   7]
          +0.022*[#   8]
    |psi|^2 = 0.179

 k =  -0.3199999997  0.5542562590  0.0000000000
==== e(   1) =   -15.28734 eV ==== 
     psi = 0.239*[#   1]+0.239*[#   5]+0.129*[#   3]+0.129*[#   4]+0.129*[#   7]
          +0.129*[#   8]
    |psi|^2 = 0.993
==== e(   2) =   -14.68245 eV ==== 
     psi = 0.223*[#   1]+0.223*[#   5]+0.137*[#   3]+0.137*[#   4]+0.137*[#   7]
          +0.137*[#   8]
    |psi|^2 = 0.994
==== e(   3) =   -12.83890 eV ==== 
     psi = 0.243*[#   3]+0.243*[#   4]+0.243*[#   7]+0.243*[#   8]+0.005*[#   1]
          +0.005*[#   5]
    |psi|^2 = 0.982
==== e(   4) =    -2.74191 eV ==== 
     psi = 0.497*[#   2]+0.497*[#   6]
    |psi|^2 = 0.995
==== e(   5) =    -1.96960 eV ==== 
     psi = 0.496*[#   2]+0.496*[#   6]
    |psi|^2 = 0.992
==== e(   6) =     8.28252 eV ==== 

    |psi|^2 = 0.000
==== e(   7) =    10.17835 eV ==== 
     psi = 0.051*[#   1]+0.051*[#   5]+0.015*[#   3]+0.015*[#   4]+0.015*[#   7]
          +0.015*[#   8]
    |psi|^2 = 0.162
==== e(   8) =    10.60744 eV ==== 
     psi = 0.133*[#   1]+0.133*[#   5]+0.042*[#   3]+0.042*[#   4]+0.042*[#   7]
          +0.042*[#   8]
    |psi|^2 = 0.436
==== e(   9) =    11.07756 eV ==== 
     psi = 0.035*[#   1]+0.035*[#   5]+0.018*[#   3]+0.018*[#   4]+0.018*[#   7]
          +0.018*[#   8]
    |psi|^2 = 0.142
==== e(  10) =    11.62330 eV ==== 

    |psi|^2 = 0.003
==== e(  11) =    11.63105 eV ==== 

    |psi|^2 = 0.000
==== e(  12) =    12.63724 eV ==== 

    |psi|^2 = 0.000
==== e(  13) =    12.70598 eV ==== 
     psi = 0.032*[#   1]+0.032*[#   5]+0.015*[#   3]+0.015*[#   4]+0.015*[#   7]
          +0.015*[#   8]
    |psi|^2 = 0.122
==== e(  14) =    12.76805 eV ==== 

    |psi|^2 = 0.000
==== e(  15) =    12.81849 eV ==== 
     psi = 0.021*[#   1]+0.021*[#   5]+0.009*[#   3]+0.009*[#   4]+0.009*[#   7]
          +0.009*[#   8]
    |psi|^2 = 0.078
==== e(  16) =    12.89919 eV ==== 

    |psi|^2 = 0.002

 k =  -0.3133333330  0.5427092536  0.0000000000
==== e(   1) =   -15.48457 eV ==== 
     psi = 0.239*[#   1]+0.239*[#   5]+0.128*[#   3]+0.128*[#   4]+0.128*[#   7]
          +0.128*[#   8]
    |psi|^2 = 0.992
==== e(   2) =   -14.53601 eV ==== 
     psi = 0.218*[#   1]+0.218*[#   5]+0.139*[#   3]+0.139*[#   4]+0.139*[#   7]
          +0.139*[#   8]
    |psi|^2 = 0.994
==== e(   3) =   -12.75592 eV ==== 
     psi = 0.241*[#   3]+0.241*[#   4]+0.241*[#   7]+0.241*[#   8]+0.010*[#   1]
          +0.010*[#   5]
    |psi|^2 = 0.982
==== e(   4) =    -2.94769 eV ==== 
     psi = 0.497*[#   2]+0.497*[#   6]
    |psi|^2 = 0.995
==== e(   5) =    -1.76753 eV ==== 
     psi = 0.496*[#   2]+0.496*[#   6]
    |psi|^2 = 0.992
==== e(   6) =     8.30920 eV ==== 

    |psi|^2 = 0.000
==== e(   7) =     9.90822 eV ==== 
     psi = 0.033*[#   1]+0.033*[#   5]+0.009*[#   3]+0.009*[#   4]+0.009*[#   7]
          +0.009*[#   8]
    |psi|^2 = 0.103
==== e(   8) =    10.63366 eV ==== 
     psi = 0.152*[#   1]+0.152*[#   5]+0.048*[#   3]+0.048*[#   4]+0.048*[#   7]
          +0.048*[#   8]
    |psi|^2 = 0.497
==== e(   9) =    11.03499 eV ==== 
     psi = 0.055*[#   1]+0.055*[#   5]+0.026*[#   3]+0.026*[#   4]+0.026*[#   7]
          +0.026*[#   8]
    |psi|^2 = 0.216
==== e(  10) =    11.23912 eV ==== 
     psi = 0.003*[#   1]+0.003*[#   5]+0.002*[#   3]+0.002*[#   4]+0.002*[#   7]
          +0.002*[#   8]
    |psi|^2 = 0.015
==== e(  11) =    11.25384 eV ==== 

    |psi|^2 = 0.000
==== e(  12) =    12.31892 eV ==== 

    |psi|^2 = 0.000
==== e(  13) =    12.42646 eV ==== 
     psi = 0.011*[#   1]+0.011*[#   5]+0.005*[#   3]+0.005*[#   4]+0.005*[#   7]
          +0.005*[#   8]
    |psi|^2 = 0.040
==== e(  14) =    13.00589 eV ==== 

    |psi|^2 = 0.000
==== e(  15) =    13.02500 eV ==== 
     psi = 0.025*[#   1]+0.025*[#   5]+0.011*[#   3]+0.011*[#   4]+0.011*[#   7]
          +0.011*[#   8]
    |psi|^2 = 0.095
==== e(  16) =    13.08325 eV ==== 
     psi = 0.011*[#   1]+0.011*[#   5]+0.006*[#   3]+0.006*[#   4]+0.006*[#   7]
          +0.006*[#   8]
    |psi|^2 = 0.046

 k =  -0.3066666664  0.5311622482  0.0000000000
==== e(   1) =   -15.69513 eV ==== 
     psi = 0.240*[#   1]+0.240*[#   5]+0.128*[#   3]+0.128*[#   4]+0.128*[#   7]
          +0.128*[#   8]
    |psi|^2 = 0.991
==== e(   2) =   -14.38446 eV ==== 
     psi = 0.213*[#   1]+0.213*[#   5]+0.142*[#   3]+0.142*[#   4]+0.142*[#   7]
          +0.142*[#   8]
    |psi|^2 = 0.994
==== e(   3) =   -12.65154 eV ==== 
     psi = 0.239*[#   3]+0.239*[#   4]+0.239*[#   7]+0.239*[#   8]+0.014*[#   1]
          +0.014*[#   5]
    |psi|^2 = 0.983
==== e(   4) =    -3.15994 eV ==== 
     psi = 0.498*[#   2]+0.498*[#   6]
    |psi|^2 = 0.995
==== e(   5) =    -1.55894 eV ==== 
     psi = 0.495*[#   2]+0.495*[#   6]
    |psi|^2 = 0.991
==== e(   6) =     8.33980 eV ==== 

    |psi|^2 = 0.001
==== e(   7) =     9.60278 eV ==== 
     psi = 0.022*[#   1]+0.022*[#   5]+0.006*[#   3]+0.006*[#   4]+0.006*[#   7]
          +0.006*[#   8]
    |psi|^2 = 0.067
==== e(   8) =    10.64296 eV ==== 
     psi = 0.171*[#   1]+0.171*[#   5]+0.053*[#   3]+0.053*[#   4]+0.053*[#   7]
          +0.053*[#   8]
    |psi|^2 = 0.555
==== e(   9) =    10.78756 eV ==== 
     psi = 0.013*[#   1]+0.013*[#   5]+0.005*[#   3]+0.005*[#   4]+0.005*[#   7]
          +0.005*[#   8]
    |psi|^2 = 0.046
==== e(  10) =    10.88405 eV ==== 

    |psi|^2 = 0.000
==== e(  11) =    11.04197 eV ==== 
     psi = 0.064*[#   1]+0.064*[#   5]+0.034*[#   3]+0.034*[#   4]+0.034*[#   7]
          +0.034*[#   8]
    |psi|^2 = 0.262
==== e(  12) =    11.97358 eV ==== 

    |psi|^2 = 0.000
==== e(  13) =    12.09096 eV ==== 
     psi = 0.003*[#   1]+0.003*[#   5]+0.001*[#   3]+0.001*[#   4]+0.001*[#   7]
          +0.001*[#   8]
    |psi|^2 = 0.011
==== e(  14) =    13.23296 eV ==== 
     psi = 0.029*[#   1]+0.029*[#   5]+0.013*[#   3]+0.013*[#   4]+0.013*[#   7]
          +0.013*[#   8]
    |psi|^2 = 0.110
==== e(  15) =    13.25221 eV ==== 

    |psi|^2 = 0.000
==== e(  16) =    13.28528 eV ==== 
     psi = 0.019*[#   1]+0.019*[#   5]+0.011*[#   3]+0.011*[#   4]+0.011*[#   7]
          +0.011*[#   8]
    |psi|^2 = 0.082

 k =  -0.2999999997  0.5196152428  0.0000000000
==== e(   1) =   -15.91420 eV ==== 
     psi = 0.241*[#   1]+0.241*[#   5]+0.127*[#   3]+0.127*[#   4]+0.127*[#   7]
          +0.127*[#   8]
    |psi|^2 = 0.990
==== e(   2) =   -14.22784 eV ==== 
     psi = 0.208*[#   1]+0.208*[#   5]+0.145*[#   3]+0.145*[#   4]+0.145*[#   7]
          +0.145*[#   8]
    |psi|^2 = 0.994
==== e(   3) =   -12.53043 eV ==== 
     psi = 0.237*[#   3]+0.237*[#   4]+0.237*[#   7]+0.237*[#   8]+0.018*[#   1]
          +0.018*[#   5]
    |psi|^2 = 0.984
==== e(   4) =    -3.37763 eV ==== 
     psi = 0.498*[#   2]+0.498*[#   6]
    |psi|^2 = 0.995
==== e(   5) =    -1.34394 eV ==== 
     psi = 0.495*[#   2]+0.495*[#   6]
    |psi|^2 = 0.990
==== e(   6) =     8.36766 eV ==== 

    |psi|^2 = 0.001
==== e(   7) =     9.27849 eV ==== 
     psi = 0.015*[#   1]+0.015*[#   5]+0.003*[#   3]+0.003*[#   4]+0.003*[#   7]
          +0.003*[#   8]
    |psi|^2 = 0.044
==== e(   8) =    10.40783 eV ==== 
     psi = 0.004*[#   1]+0.004*[#   5]+0.002*[#   3]+0.002*[#   4]+0.002*[#   7]
          +0.002*[#   8]
    |psi|^2 = 0.015
==== e(   9) =    10.52736 eV ==== 

    |psi|^2 = 0.000
==== e(  10) =    10.63623 eV ==== 
     psi = 0.188*[#   1]+0.188*[#   5]+0.058*[#   3]+0.058*[#   4]+0.058*[#   7]
          +0.058*[#   8]
    |psi|^2 = 0.610
==== e(  11) =    10.95488 eV ==== 
     psi = 0.087*[#   1]+0.087*[#   5]+0.046*[#   3]+0.046*[#   4]+0.046*[#   7]
          +0.046*[#   8]
    |psi|^2 = 0.358
==== e(  12) =    11.63162 eV ==== 

    |psi|^2 = 0.000
==== e(  13) =    11.74129 eV ==== 

    |psi|^2 = 0.003
==== e(  14) =    13.44346 eV ==== 
     psi = 0.031*[#   1]+0.031*[#   5]+0.014*[#   3]+0.014*[#   4]+0.014*[#   7]
          +0.014*[#   8]
    |psi|^2 = 0.120
==== e(  15) =    13.47122 eV ==== 
     psi = 0.029*[#   1]+0.029*[#   5]+0.016*[#   3]+0.016*[#   4]+0.016*[#   7]
          +0.016*[#   8]
    |psi|^2 = 0.123
==== e(  16) =    13.48090 eV ==== 

    |psi|^2 = 0.000

 k =  -0.2933333330  0.5080682374  0.0000000000
==== e(   1) =   -16.13827 eV ==== 
     psi = 0.242*[#   1]+0.242*[#   5]+0.126*[#   3]+0.126*[#   4]+0.126*[#   7]
          +0.126*[#   8]
    |psi|^2 = 0.990
==== e(   2) =   -14.06616 eV ==== 
     psi = 0.202*[#   1]+0.202*[#   5]+0.147*[#   3]+0.147*[#   4]+0.147*[#   7]
          +0.147*[#   8]
    |psi|^2 = 0.994
==== e(   3) =   -12.39597 eV ==== 
     psi = 0.235*[#   3]+0.235*[#   4]+0.235*[#   7]+0.235*[#   8]+0.022*[#   1]
          +0.022*[#   5]
    |psi|^2 = 0.984
==== e(   4) =    -3.59976 eV ==== 
     psi = 0.498*[#   2]+0.498*[#   6]
    |psi|^2 = 0.995
==== e(   5) =    -1.12264 eV ==== 
     psi = 0.495*[#   2]+0.495*[#   6]
    |psi|^2 = 0.989
==== e(   6) =     8.38293 eV ==== 

    |psi|^2 = 0.001
==== e(   7) =     8.94505 eV ==== 
     psi = 0.010*[#   1]+0.010*[#   5]+0.002*[#   3]+0.002*[#   4]+0.002*[#   7]
          +0.002*[#   8]
    |psi|^2 = 0.030
==== e(   8) =    10.02597 eV ==== 
     psi = 0.002*[#   1]+0.002*[#   5]
    |psi|^2 = 0.008
==== e(   9) =    10.18892 eV ==== 

    |psi|^2 = 0.000
==== e(  10) =    10.61500 eV ==== 
     psi = 0.204*[#   1]+0.204*[#   5]+0.063*[#   3]+0.063*[#   4]+0.063*[#   7]
          +0.063*[#   8]
    |psi|^2 = 0.659
==== e(  11) =    10.84537 eV ==== 
     psi = 0.098*[#   1]+0.098*[#   5]+0.054*[#   3]+0.054*[#   4]+0.054*[#   7]
          +0.054*[#   8]
    |psi|^2 = 0.411
==== e(  12) =    11.30393 eV ==== 

    |psi|^2 = 0.000
==== e(  13) =    11.39256 eV ==== 
     psi = 0.002*[#   3]+0.002*[#   4]+0.002*[#   7]+0.002*[#   8]+0.001*[#   1]
          +0.001*[#   5]
    |psi|^2 = 0.012
==== e(  14) =    13.22421 eV ==== 

    |psi|^2 = 0.000
==== e(  15) =    13.45429 eV ==== 
     psi = 0.018*[#   1]+0.018*[#   5]+0.009*[#   3]+0.009*[#   4]+0.009*[#   7]
          +0.009*[#   8]
    |psi|^2 = 0.070
==== e(  16) =    13.65855 eV ==== 
     psi = 0.031*[#   1]+0.031*[#   5]+0.015*[#   3]+0.015*[#   4]+0.015*[#   7]
          +0.015*[#   8]
    |psi|^2 = 0.122

 k =  -0.2866666664  0.4965212320  0.0000000000
==== e(   1) =   -16.36486 eV ==== 
     psi = 0.244*[#   1]+0.244*[#   5]+0.125*[#   3]+0.125*[#   4]+0.125*[#   7]
          +0.125*[#   8]
    |psi|^2 = 0.989
==== e(   2) =   -13.89949 eV ==== 
     psi = 0.197*[#   1]+0.197*[#   5]+0.150*[#   3]+0.150*[#   4]+0.150*[#   7]
          +0.150*[#   8]
    |psi|^2 = 0.994
==== e(   3) =   -12.25058 eV ==== 
     psi = 0.234*[#   3]+0.234*[#   4]+0.234*[#   7]+0.234*[#   8]+0.025*[#   1]
          +0.025*[#   5]
    |psi|^2 = 0.985
==== e(   4) =    -3.82537 eV ==== 
     psi = 0.498*[#   2]+0.498*[#   6]
    |psi|^2 = 0.996
==== e(   5) =    -0.89519 eV ==== 
     psi = 0.494*[#   2]+0.494*[#   6]
    |psi|^2 = 0.988
==== e(   6) =     8.37154 eV ==== 

    |psi|^2 = 0.001
==== e(   7) =     8.60827 eV ==== 
     psi = 0.007*[#   1]+0.007*[#   5]+0.001*[#   3]+0.001*[#   4]+0.001*[#   7]
          +0.001*[#   8]
    |psi|^2 = 0.021
==== e(   8) =     9.65007 eV ==== 
     psi = 0.002*[#   1]+0.002*[#   5]
    |psi|^2 = 0.005
==== e(   9) =     9.87453 eV ==== 

    |psi|^2 = 0.000
==== e(  10) =    10.58109 eV ==== 
     psi = 0.218*[#   1]+0.218*[#   5]+0.066*[#   3]+0.066*[#   4]+0.066*[#   7]
          +0.066*[#   8]
    |psi|^2 = 0.703
==== e(  11) =    10.69961 eV ==== 
     psi = 0.098*[#   1]+0.098*[#   5]+0.054*[#   3]+0.054*[#   4]+0.054*[#   7]
          +0.054*[#   8]
    |psi|^2 = 0.414
==== e(  12) =    10.99933 eV ==== 

    |psi|^2 = 0.000
==== e(  13) =    11.05900 eV ==== 
     psi = 0.011*[#   1]+0.011*[#   5]+0.010*[#   3]+0.010*[#   4]+0.010*[#   7]
          +0.010*[#   8]
    |psi|^2 = 0.061
==== e(  14) =    12.92059 eV ==== 

    |psi|^2 = 0.000
==== e(  15) =    13.18117 eV ==== 
     psi = 0.005*[#   1]+0.005*[#   5]+0.002*[#   3]+0.002*[#   4]+0.002*[#   7]
          +0.002*[#   8]
    |psi|^2 = 0.020
==== e(  16) =    13.88038 eV ==== 
     psi = 0.030*[#   1]+0.030*[#   5]+0.015*[#   3]+0.015*[#   4]+0.015*[#   7]
          +0.015*[#   8]
    |psi|^2 = 0.119

 k =  -0.2799999997  0.4849742266  0.0000000000
==== e(   1) =   -16.59210 eV ==== 
     psi = 0.246*[#   1]+0.246*[#   5]+0.124*[#   3]+0.124*[#   4]+0.124*[#   7]
          +0.124*[#   8]
    |psi|^2 = 0.988
==== e(   2) =   -13.72786 eV ==== 
     psi = 0.192*[#   1]+0.192*[#   5]+0.153*[#   3]+0.153*[#   4]+0.153*[#   7]
          +0.153*[#   8]
    |psi|^2 = 0.994
==== e(   3) =   -12.09603 eV ==== 
     psi = 0.233*[#   3]+0.233*[#   4]+0.233*[#   7]+0.233*[#   8]+0.027*[#   1]
          +0.027*[#   5]
    |psi|^2 = 0.985
==== e(   4) =    -4.05351 eV ==== 
     psi = 0.498*[#   2]+0.498*[#   6]
    |psi|^2 = 0.996
==== e(   5) =    -0.66172 eV ==== 
     psi = 0.494*[#   2]+0.494*[#   6]
    |psi|^2 = 0.987
==== e(   6) =     8.27175 eV ==== 
     psi = 0.005*[#   1]+0.005*[#   5]+0.001*[#   3]+0.001*[#   4]+0.001*[#   7]
          +0.001*[#   8]
    |psi|^2 = 0.015
==== e(   7) =     8.31581 eV ==== 

    |psi|^2 = 0.000
==== e(   8) =     9.28158 eV ==== 
     psi = 0.001*[#   1]+0.001*[#   5]
    |psi|^2 = 0.003
==== e(   9) =     9.58940 eV ==== 

    |psi|^2 = 0.000
==== e(  10) =    10.49531 eV ==== 
     psi = 0.072*[#   1]+0.072*[#   5]+0.039*[#   3]+0.039*[#   4]+0.039*[#   7]
          +0.039*[#   8]
    |psi|^2 = 0.298
==== e(  11) =    10.53640 eV ==== 
     psi = 0.231*[#   1]+0.231*[#   5]+0.070*[#   3]+0.070*[#   4]+0.070*[#   7]
          +0.070*[#   8]
    |psi|^2 = 0.740
==== e(  12) =    10.72807 eV ==== 

    |psi|^2 = 0.000
==== e(  13) =    10.76828 eV ==== 
     psi = 0.045*[#   1]+0.045*[#   5]+0.033*[#   3]+0.033*[#   4]+0.033*[#   7]
          +0.033*[#   8]
    |psi|^2 = 0.222
==== e(  14) =    12.61572 eV ==== 

    |psi|^2 = 0.000
==== e(  15) =    12.86442 eV ==== 
     psi = 0.002*[#   1]+0.002*[#   5]
    |psi|^2 = 0.007
==== e(  16) =    14.11043 eV ==== 
     psi = 0.027*[#   1]+0.027*[#   5]+0.015*[#   3]+0.015*[#   4]+0.015*[#   7]
          +0.015*[#   8]
    |psi|^2 = 0.112

 k =  -0.2733333331  0.4734272212  0.0000000000
==== e(   1) =   -16.81871 eV ==== 
     psi = 0.248*[#   1]+0.248*[#   5]+0.123*[#   3]+0.123*[#   4]+0.123*[#   7]
          +0.123*[#   8]
    |psi|^2 = 0.987
==== e(   2) =   -13.55134 eV ==== 
     psi = 0.186*[#   1]+0.186*[#   5]+0.155*[#   3]+0.155*[#   4]+0.155*[#   7]
          +0.155*[#   8]
    |psi|^2 = 0.994
==== e(   3) =   -11.93364 eV ==== 
     psi = 0.232*[#   3]+0.232*[#   4]+0.232*[#   7]+0.232*[#   8]+0.030*[#   1]
          +0.030*[#   5]
    |psi|^2 = 0.986
==== e(   4) =    -4.28332 eV ==== 
     psi = 0.498*[#   2]+0.498*[#   6]
    |psi|^2 = 0.996
==== e(   5) =    -0.42238 eV ==== 
     psi = 0.493*[#   2]+0.493*[#   6]
    |psi|^2 = 0.986
==== e(   6) =     7.93781 eV ==== 
     psi = 0.004*[#   1]+0.004*[#   5]
    |psi|^2 = 0.011
==== e(   7) =     8.20031 eV ==== 

    |psi|^2 = 0.000
==== e(   8) =     8.92103 eV ==== 

    |psi|^2 = 0.002
==== e(   9) =     9.33283 eV ==== 

    |psi|^2 = 0.000
==== e(  10) =    10.21643 eV ==== 
     psi = 0.035*[#   1]+0.035*[#   5]+0.017*[#   3]+0.017*[#   4]+0.017*[#   7]
          +0.017*[#   8]
    |psi|^2 = 0.138
==== e(  11) =    10.48275 eV ==== 
     psi = 0.242*[#   1]+0.242*[#   5]+0.072*[#   3]+0.072*[#   4]+0.072*[#   7]
          +0.072*[#   8]
    |psi|^2 = 0.773
==== e(  12) =    10.50157 eV ==== 

    |psi|^2 = 0.001
==== e(  13) =    10.54161 eV ==== 
     psi = 0.088*[#   1]+0.088*[#   5]+0.061*[#   3]+0.061*[#   4]+0.061*[#   7]
          +0.061*[#   8]
    |psi|^2 = 0.420
==== e(  14) =    12.32386 eV ==== 

    |psi|^2 = 0.000
==== e(  15) =    12.53855 eV ==== 

    |psi|^2 = 0.003
==== e(  16) =    14.34927 eV ==== 
     psi = 0.023*[#   1]+0.023*[#   5]+0.014*[#   3]+0.014*[#   4]+0.014*[#   7]
          +0.014*[#   8]
    |psi|^2 = 0.103

 k =  -0.2666666664  0.4618802158  0.0000000000
==== e(   1) =   -17.04366 eV ==== 
     psi = 0.251*[#   1]+0.251*[#   5]+0.121*[#   3]+0.121*[#   4]+0.121*[#   7]
          +0.121*[#   8]
    |psi|^2 = 0.987
==== e(   2) =   -13.36999 eV ==== 
     psi = 0.181*[#   1]+0.181*[#   5]+0.158*[#   3]+0.158*[#   4]+0.158*[#   7]
          +0.158*[#   8]
    |psi|^2 = 0.994
==== e(   3) =   -11.76441 eV ==== 
     psi = 0.231*[#   3]+0.231*[#   4]+0.231*[#   7]+0.231*[#   8]+0.031*[#   1]
          +0.031*[#   5]
    |psi|^2 = 0.986
==== e(   4) =    -4.51398 eV ==== 
     psi = 0.498*[#   2]+0.498*[#   6]
    |psi|^2 = 0.996
==== e(   5) =    -0.17737 eV ==== 
     psi = 0.493*[#   2]+0.493*[#   6]
    |psi|^2 = 0.985
==== e(   6) =     7.60801 eV ==== 
     psi = 0.003*[#   1]+0.003*[#   5]
    |psi|^2 = 0.009
==== e(   7) =     8.02254 eV ==== 

    |psi|^2 = 0.000
==== e(   8) =     8.56868 eV ==== 

    |psi|^2 = 0.002
==== e(   9) =     9.09252 eV ==== 

    |psi|^2 = 0.000
==== e(  10) =     9.89987 eV ==== 
     psi = 0.017*[#   1]+0.017*[#   5]+0.008*[#   3]+0.008*[#   4]+0.008*[#   7]
          +0.008*[#   8]
    |psi|^2 = 0.065
==== e(  11) =    10.32691 eV ==== 

    |psi|^2 = 0.001
==== e(  12) =    10.34661 eV ==== 
     psi = 0.109*[#   1]+0.109*[#   5]+0.077*[#   3]+0.077*[#   4]+0.077*[#   7]
          +0.077*[#   8]
    |psi|^2 = 0.526
==== e(  13) =    10.42175 eV ==== 
     psi = 0.251*[#   1]+0.251*[#   5]+0.075*[#   3]+0.075*[#   4]+0.075*[#   7]
          +0.075*[#   8]
    |psi|^2 = 0.801
==== e(  14) =    12.05524 eV ==== 

    |psi|^2 = 0.000
==== e(  15) =    12.21212 eV ==== 

    |psi|^2 = 0.002
==== e(  16) =    14.59666 eV ==== 
     psi = 0.020*[#   1]+0.020*[#   5]+0.014*[#   3]+0.014*[#   4]+0.014*[#   7]
          +0.014*[#   8]
    |psi|^2 = 0.095

 k =  -0.2599999997  0.4503332104  0.0000000000
==== e(   1) =   -17.26619 eV ==== 
     psi = 0.254*[#   1]+0.254*[#   5]+0.119*[#   3]+0.119*[#   4]+0.119*[#   7]
          +0.119*[#   8]
    |psi|^2 = 0.986
==== e(   2) =   -13.18383 eV ==== 
     psi = 0.176*[#   1]+0.176*[#   5]+0.161*[#   3]+0.161*[#   4]+0.161*[#   7]
          +0.161*[#   8]
    |psi|^2 = 0.994
==== e(   3) =   -11.58914 eV ==== 
     psi = 0.230*[#   3]+0.230*[#   4]+0.230*[#   7]+0.230*[#   8]+0.033*[#   1]
          +0.033*[#   5]
    |psi|^2 = 0.987
==== e(   4) =    -4.74472 eV ==== 
     psi = 0.498*[#   2]+0.498*[#   6]
    |psi|^2 = 0.996
==== e(   5) =     0.07318 eV ==== 
     psi = 0.492*[#   2]+0.492*[#   6]
    |psi|^2 = 0.984
==== e(   6) =     7.28340 eV ==== 
     psi = 0.002*[#   1]+0.002*[#   5]+0.001*[#   3]+0.001*[#   4]+0.001*[#   7]
          +0.001*[#   8]
    |psi|^2 = 0.008
==== e(   7) =     7.79549 eV ==== 

    |psi|^2 = 0.000
==== e(   8) =     8.22469 eV ==== 

    |psi|^2 = 0.001
==== e(   9) =     8.85064 eV ==== 

    |psi|^2 = 0.000
==== e(  10) =     9.57537 eV ==== 
     psi = 0.010*[#   1]+0.010*[#   5]+0.004*[#   3]+0.004*[#   4]+0.004*[#   7]
          +0.004*[#   8]
    |psi|^2 = 0.036
==== e(  11) =    10.15734 eV ==== 
     psi = 0.120*[#   1]+0.120*[#   5]+0.086*[#   3]+0.086*[#   4]+0.086*[#   7]
          +0.086*[#   8]
    |psi|^2 = 0.583
==== e(  12) =    10.19716 eV ==== 

    |psi|^2 = 0.001
==== e(  13) =    10.35480 eV ==== 
     psi = 0.258*[#   1]+0.258*[#   5]+0.077*[#   3]+0.077*[#   4]+0.077*[#   7]
          +0.077*[#   8]
    |psi|^2 = 0.824
==== e(  14) =    11.82142 eV ==== 

    |psi|^2 = 0.001
==== e(  15) =    11.88873 eV ==== 

    |psi|^2 = 0.003
==== e(  16) =    14.45278 eV ==== 

    |psi|^2 = 0.000

 k =  -0.2533333331  0.4387862050  0.0000000000
==== e(   1) =   -17.48567 eV ==== 
     psi = 0.258*[#   1]+0.258*[#   5]+0.117*[#   3]+0.117*[#   4]+0.117*[#   7]
          +0.117*[#   8]
    |psi|^2 = 0.985
==== e(   2) =   -12.99297 eV ==== 
     psi = 0.170*[#   1]+0.170*[#   5]+0.163*[#   3]+0.163*[#   4]+0.163*[#   7]
          +0.163*[#   8]
    |psi|^2 = 0.995
==== e(   3) =   -11.40849 eV ==== 
     psi = 0.230*[#   3]+0.230*[#   4]+0.230*[#   7]+0.230*[#   8]+0.034*[#   1]
          +0.034*[#   5]
    |psi|^2 = 0.987
==== e(   4) =    -4.97484 eV ==== 
     psi = 0.498*[#   2]+0.498*[#   6]
    |psi|^2 = 0.996
==== e(   5) =     0.32904 eV ==== 
     psi = 0.491*[#   2]+0.491*[#   6]
    |psi|^2 = 0.983
==== e(   6) =     6.96476 eV ==== 
     psi = 0.001*[#   1]+0.001*[#   3]+0.001*[#   4]+0.001*[#   5]+0.001*[#   7]
          +0.001*[#   8]
    |psi|^2 = 0.008
==== e(   7) =     7.53743 eV ==== 

    |psi|^2 = 0.000
==== e(   8) =     7.88915 eV ==== 

    |psi|^2 = 0.001
==== e(   9) =     8.59723 eV ==== 

    |psi|^2 = 0.000
==== e(  10) =     9.25271 eV ==== 
     psi = 0.006*[#   1]+0.006*[#   5]+0.002*[#   3]+0.002*[#   4]+0.002*[#   7]
          +0.002*[#   8]
    |psi|^2 = 0.022
==== e(  11) =     9.96715 eV ==== 
     psi = 0.125*[#   1]+0.125*[#   5]+0.093*[#   3]+0.093*[#   4]+0.093*[#   7]
          +0.093*[#   8]
    |psi|^2 = 0.622
==== e(  12) =    10.08828 eV ==== 

    |psi|^2 = 0.001
==== e(  13) =    10.28308 eV ==== 
     psi = 0.265*[#   1]+0.265*[#   5]+0.079*[#   3]+0.079*[#   4]+0.079*[#   7]
          +0.079*[#   8]
    |psi|^2 = 0.844
==== e(  14) =    11.57024 eV ==== 
     psi = 0.001*[#   3]+0.001*[#   4]+0.001*[#   7]+0.001*[#   8]
    |psi|^2 = 0.004
==== e(  15) =    11.63621 eV ==== 

    |psi|^2 = 0.001
==== e(  16) =    14.19637 eV ==== 

    |psi|^2 = 0.000

 k =  -0.2466666664  0.4272391996  0.0000000000
==== e(   1) =   -17.70167 eV ==== 
     psi = 0.262*[#   1]+0.262*[#   5]+0.115*[#   3]+0.115*[#   4]+0.115*[#   7]
          +0.115*[#   8]
    |psi|^2 = 0.985
==== e(   2) =   -12.79747 eV ==== 
     psi = 0.166*[#   3]+0.166*[#   4]+0.166*[#   7]+0.166*[#   8]+0.165*[#   1]
          +0.165*[#   5]
    |psi|^2 = 0.995
==== e(   3) =   -11.22302 eV ==== 
     psi = 0.230*[#   3]+0.230*[#   4]+0.230*[#   7]+0.230*[#   8]+0.034*[#   1]
          +0.034*[#   5]
    |psi|^2 = 0.988
==== e(   4) =    -5.20368 eV ==== 
     psi = 0.498*[#   2]+0.498*[#   6]
    |psi|^2 = 0.996
==== e(   5) =     0.59001 eV ==== 
     psi = 0.491*[#   2]+0.491*[#   6]
    |psi|^2 = 0.981
==== e(   6) =     6.65263 eV ==== 
     psi = 0.002*[#   3]+0.002*[#   4]+0.002*[#   7]+0.002*[#   8]
    |psi|^2 = 0.008
==== e(   7) =     7.26301 eV ==== 

    |psi|^2 = 0.000
==== e(   8) =     7.56213 eV ==== 

    |psi|^2 = 0.001
==== e(   9) =     8.33241 eV ==== 

    |psi|^2 = 0.000
==== e(  10) =     8.93522 eV ==== 
     psi = 0.005*[#   1]+0.005*[#   5]+0.001*[#   3]+0.001*[#   4]+0.001*[#   7]
          +0.001*[#   8]
    |psi|^2 = 0.015
==== e(  11) =     9.77524 eV ==== 
     psi = 0.129*[#   1]+0.129*[#   5]+0.098*[#   3]+0.098*[#   4]+0.098*[#   7]
          +0.098*[#   8]
    |psi|^2 = 0.651
==== e(  12) =     9.96981 eV ==== 

    |psi|^2 = 0.000
==== e(  13) =    10.20755 eV ==== 
     psi = 0.270*[#   1]+0.270*[#   5]+0.080*[#   3]+0.080*[#   4]+0.080*[#   7]
          +0.080*[#   8]
    |psi|^2 = 0.862
==== e(  14) =    11.25778 eV ==== 
     psi = 0.001*[#   3]+0.001*[#   4]+0.001*[#   7]+0.001*[#   8]
    |psi|^2 = 0.006
==== e(  15) =    11.51170 eV ==== 

    |psi|^2 = 0.001
==== e(  16) =    13.94528 eV ==== 

    |psi|^2 = 0.000

 k =  -0.2399999998  0.4156921942  0.0000000000
==== e(   1) =   -17.91379 eV ==== 
     psi = 0.266*[#   1]+0.266*[#   5]+0.113*[#   3]+0.113*[#   4]+0.113*[#   7]
          +0.113*[#   8]
    |psi|^2 = 0.984
==== e(   2) =   -12.59744 eV ==== 
     psi = 0.169*[#   3]+0.169*[#   4]+0.169*[#   7]+0.169*[#   8]+0.160*[#   1]
          +0.160*[#   5]
    |psi|^2 = 0.995
==== e(   3) =   -11.03325 eV ==== 
     psi = 0.230*[#   3]+0.230*[#   4]+0.230*[#   7]+0.230*[#   8]+0.035*[#   1]
          +0.035*[#   5]
    |psi|^2 = 0.988
==== e(   4) =    -5.43067 eV ==== 
     psi = 0.498*[#   2]+0.498*[#   6]
    |psi|^2 = 0.996
==== e(   5) =     0.85586 eV ==== 
     psi = 0.490*[#   2]+0.490*[#   6]
    |psi|^2 = 0.980
==== e(   6) =     6.34743 eV ==== 
     psi = 0.002*[#   3]+0.002*[#   4]+0.002*[#   7]+0.002*[#   8]
    |psi|^2 = 0.009
==== e(   7) =     6.98162 eV ==== 

    |psi|^2 = 0.000
==== e(   8) =     7.24368 eV ==== 

    |psi|^2 = 0.001
==== e(   9) =     8.06050 eV ==== 

    |psi|^2 = 0.000
==== e(  10) =     8.62433 eV ==== 
     psi = 0.003*[#   1]+0.003*[#   5]
    |psi|^2 = 0.010
==== e(  11) =     9.58225 eV ==== 
     psi = 0.131*[#   1]+0.131*[#   5]+0.103*[#   3]+0.103*[#   4]+0.103*[#   7]
          +0.103*[#   8]
    |psi|^2 = 0.674
==== e(  12) =     9.82087 eV ==== 

    |psi|^2 = 0.000
==== e(  13) =    10.12896 eV ==== 
     psi = 0.274*[#   1]+0.274*[#   5]+0.082*[#   3]+0.082*[#   4]+0.082*[#   7]
          +0.082*[#   8]
    |psi|^2 = 0.876
==== e(  14) =    10.95207 eV ==== 
     psi = 0.002*[#   3]+0.002*[#   4]+0.002*[#   7]+0.002*[#   8]
    |psi|^2 = 0.008
==== e(  15) =    11.44916 eV ==== 

    |psi|^2 = 0.001
==== e(  16) =    13.71179 eV ==== 

    |psi|^2 = 0.001

 k =  -0.2333333331  0.4041451888  0.0000000000
==== e(   1) =   -18.12169 eV ==== 
     psi = 0.270*[#   1]+0.270*[#   5]+0.111*[#   3]+0.111*[#   4]+0.111*[#   7]
          +0.111*[#   8]
    |psi|^2 = 0.984
==== e(   2) =   -12.39295 eV ==== 
     psi = 0.172*[#   3]+0.172*[#   4]+0.172*[#   7]+0.172*[#   8]+0.154*[#   1]
          +0.154*[#   5]
    |psi|^2 = 0.995
==== e(   3) =   -10.83959 eV ==== 
     psi = 0.229*[#   3]+0.229*[#   4]+0.229*[#   7]+0.229*[#   8]+0.035*[#   1]
          +0.035*[#   5]
    |psi|^2 = 0.988
==== e(   4) =    -5.65524 eV ==== 
     psi = 0.498*[#   2]+0.498*[#   6]
    |psi|^2 = 0.996
==== e(   5) =     1.12633 eV ==== 
     psi = 0.490*[#   2]+0.490*[#   6]
    |psi|^2 = 0.979
==== e(   6) =     6.04948 eV ==== 
     psi = 0.002*[#   3]+0.002*[#   4]+0.002*[#   7]+0.002*[#   8]
    |psi|^2 = 0.010
==== e(   7) =     6.69888 eV ==== 

    |psi|^2 = 0.000
==== e(   8) =     6.93383 eV ==== 

    |psi|^2 = 0.001
==== e(   9) =     7.78591 eV ==== 

    |psi|^2 = 0.000
==== e(  10) =     8.32073 eV ==== 
     psi = 0.002*[#   1]+0.002*[#   5]
    |psi|^2 = 0.007
==== e(  11) =     9.38918 eV ==== 
     psi = 0.132*[#   1]+0.132*[#   5]+0.107*[#   3]+0.107*[#   4]+0.107*[#   7]
          +0.107*[#   8]
    |psi|^2 = 0.693
==== e(  12) =     9.63776 eV ==== 

    |psi|^2 = 0.000
==== e(  13) =    10.04796 eV ==== 
     psi = 0.277*[#   1]+0.277*[#   5]+0.084*[#   3]+0.084*[#   4]+0.084*[#   7]
          +0.084*[#   8]
    |psi|^2 = 0.889
==== e(  14) =    10.65359 eV ==== 
     psi = 0.002*[#   3]+0.002*[#   4]+0.002*[#   7]+0.002*[#   8]
    |psi|^2 = 0.011
==== e(  15) =    11.43324 eV ==== 

    |psi|^2 = 0.001
==== e(  16) =    13.50689 eV ==== 

    |psi|^2 = 0.001

 k =  -0.2266666664  0.3925981834  0.0000000000
==== e(   1) =   -18.32511 eV ==== 
     psi = 0.274*[#   1]+0.274*[#   5]+0.109*[#   3]+0.109*[#   4]+0.109*[#   7]
          +0.109*[#   8]
    |psi|^2 = 0.983
==== e(   2) =   -12.18411 eV ==== 
     psi = 0.174*[#   3]+0.174*[#   4]+0.174*[#   7]+0.174*[#   8]+0.149*[#   1]
          +0.149*[#   5]
    |psi|^2 = 0.995
==== e(   3) =   -10.64249 eV ==== 
     psi = 0.230*[#   3]+0.230*[#   4]+0.230*[#   7]+0.230*[#   8]+0.035*[#   1]
          +0.035*[#   5]
    |psi|^2 = 0.988
==== e(   4) =    -5.87691 eV ==== 
     psi = 0.498*[#   2]+0.498*[#   6]
    |psi|^2 = 0.995
==== e(   5) =     1.40116 eV ==== 
     psi = 0.489*[#   2]+0.489*[#   6]
    |psi|^2 = 0.978
==== e(   6) =     5.75901 eV ==== 
     psi = 0.003*[#   3]+0.003*[#   4]+0.003*[#   7]+0.003*[#   8]
    |psi|^2 = 0.011
==== e(   7) =     6.41817 eV ==== 

    |psi|^2 = 0.001
==== e(   8) =     6.63262 eV ==== 

    |psi|^2 = 0.001
==== e(   9) =     7.51195 eV ==== 

    |psi|^2 = 0.000
==== e(  10) =     8.02484 eV ==== 
     psi = 0.002*[#   1]+0.002*[#   5]
    |psi|^2 = 0.006
==== e(  11) =     9.19702 eV ==== 
     psi = 0.132*[#   1]+0.132*[#   5]+0.111*[#   3]+0.111*[#   4]+0.111*[#   7]
          +0.111*[#   8]
    |psi|^2 = 0.710
==== e(  12) =     9.42814 eV ==== 

    |psi|^2 = 0.000
==== e(  13) =     9.96501 eV ==== 
     psi = 0.279*[#   1]+0.279*[#   5]+0.086*[#   3]+0.086*[#   4]+0.086*[#   7]
          +0.086*[#   8]
    |psi|^2 = 0.899
==== e(  14) =    10.36272 eV ==== 
     psi = 0.003*[#   3]+0.003*[#   4]+0.003*[#   7]+0.003*[#   8]
    |psi|^2 = 0.014
==== e(  15) =    11.43655 eV ==== 

    |psi|^2 = 0.001
==== e(  16) =    13.34366 eV ==== 

    |psi|^2 = 0.001

 k =  -0.2199999998  0.3810511780  0.0000000000
==== e(   1) =   -18.52386 eV ==== 
     psi = 0.279*[#   1]+0.279*[#   5]+0.106*[#   3]+0.106*[#   4]+0.106*[#   7]
          +0.106*[#   8]
    |psi|^2 = 0.983
==== e(   2) =   -11.97105 eV ==== 
     psi = 0.177*[#   3]+0.177*[#   4]+0.177*[#   7]+0.177*[#   8]+0.144*[#   1]
          +0.144*[#   5]
    |psi|^2 = 0.995
==== e(   3) =   -10.44235 eV ==== 
     psi = 0.230*[#   3]+0.230*[#   4]+0.230*[#   7]+0.230*[#   8]+0.035*[#   1]
          +0.035*[#   5]
    |psi|^2 = 0.989
==== e(   4) =    -6.09524 eV ==== 
     psi = 0.497*[#   2]+0.497*[#   6]
    |psi|^2 = 0.995
==== e(   5) =     1.68005 eV ==== 
     psi = 0.488*[#   2]+0.488*[#   6]
    |psi|^2 = 0.977
==== e(   6) =     5.47621 eV ==== 
     psi = 0.003*[#   3]+0.003*[#   4]+0.003*[#   7]+0.003*[#   8]
    |psi|^2 = 0.013
==== e(   7) =     6.14155 eV ==== 

    |psi|^2 = 0.001
==== e(   8) =     6.34006 eV ==== 

    |psi|^2 = 0.001
==== e(   9) =     7.24092 eV ==== 

    |psi|^2 = 0.001
==== e(  10) =     7.73692 eV ==== 
     psi = 0.001*[#   1]+0.001*[#   5]
    |psi|^2 = 0.004
==== e(  11) =     9.00661 eV ==== 
     psi = 0.132*[#   1]+0.132*[#   5]+0.115*[#   3]+0.115*[#   4]+0.115*[#   7]
          +0.115*[#   8]
    |psi|^2 = 0.723
==== e(  12) =     9.20203 eV ==== 

    |psi|^2 = 0.000
==== e(  13) =     9.88047 eV ==== 
     psi = 0.280*[#   1]+0.280*[#   5]+0.087*[#   3]+0.087*[#   4]+0.087*[#   7]
          +0.087*[#   8]
    |psi|^2 = 0.908
==== e(  14) =    10.07970 eV ==== 
     psi = 0.004*[#   3]+0.004*[#   4]+0.004*[#   7]+0.004*[#   8]+0.001*[#   1]
          +0.001*[#   5]
    |psi|^2 = 0.018
==== e(  15) =    11.42878 eV ==== 

    |psi|^2 = 0.000
==== e(  16) =    13.14188 eV ==== 

    |psi|^2 = 0.002

 k =  -0.2133333331  0.3695041727  0.0000000000
==== e(   1) =   -18.71774 eV ==== 
     psi = 0.284*[#   1]+0.284*[#   5]+0.104*[#   3]+0.104*[#   4]+0.104*[#   7]
          +0.104*[#   8]
    |psi|^2 = 0.983
==== e(   2) =   -11.75388 eV ==== 
     psi = 0.179*[#   3]+0.179*[#   4]+0.179*[#   7]+0.179*[#   8]+0.139*[#   1]
          +0.139*[#   5]
    |psi|^2 = 0.995
==== e(   3) =   -10.23955 eV ==== 
     psi = 0.230*[#   3]+0.230*[#   4]+0.230*[#   7]+0.230*[#   8]+0.034*[#   1]
          +0.034*[#   5]
    |psi|^2 = 0.989
==== e(   4) =    -6.30982 eV ==== 
     psi = 0.497*[#   2]+0.497*[#   6]
    |psi|^2 = 0.994
==== e(   5) =     1.96269 eV ==== 
     psi = 0.488*[#   2]+0.488*[#   6]
    |psi|^2 = 0.975
==== e(   6) =     5.20124 eV ==== 
     psi = 0.004*[#   3]+0.004*[#   4]+0.004*[#   7]+0.004*[#   8]
    |psi|^2 = 0.014
==== e(   7) =     5.87035 eV ==== 

    |psi|^2 = 0.001
==== e(   8) =     6.05617 eV ==== 

    |psi|^2 = 0.001
==== e(   9) =     6.97439 eV ==== 

    |psi|^2 = 0.001
==== e(  10) =     7.45713 eV ==== 
     psi = 0.001*[#   1]+0.001*[#   5]
    |psi|^2 = 0.004
==== e(  11) =     8.81877 eV ==== 
     psi = 0.131*[#   1]+0.131*[#   5]+0.118*[#   3]+0.118*[#   4]+0.118*[#   7]
          +0.118*[#   8]
    |psi|^2 = 0.734
==== e(  12) =     8.96740 eV ==== 

    |psi|^2 = 0.000
==== e(  13) =     9.79460 eV ==== 
     psi = 0.280*[#   1]+0.280*[#   5]+0.089*[#   3]+0.089*[#   4]+0.089*[#   7]
          +0.089*[#   8]
    |psi|^2 = 0.916
==== e(  14) =     9.80476 eV ==== 
     psi = 0.005*[#   3]+0.005*[#   4]+0.005*[#   7]+0.005*[#   8]+0.002*[#   1]
          +0.002*[#   5]
    |psi|^2 = 0.022
==== e(  15) =    11.38574 eV ==== 

    |psi|^2 = 0.000
==== e(  16) =    12.87268 eV ==== 

    |psi|^2 = 0.002

 k =  -0.2066666665  0.3579571673  0.0000000000
==== e(   1) =   -18.90657 eV ==== 
     psi = 0.289*[#   1]+0.289*[#   5]+0.101*[#   3]+0.101*[#   4]+0.101*[#   7]
          +0.101*[#   8]
    |psi|^2 = 0.982
==== e(   2) =   -11.53276 eV ==== 
     psi = 0.182*[#   3]+0.182*[#   4]+0.182*[#   7]+0.182*[#   8]+0.134*[#   1]
          +0.134*[#   5]
    |psi|^2 = 0.996
==== e(   3) =   -10.03452 eV ==== 
     psi = 0.230*[#   3]+0.230*[#   4]+0.230*[#   7]+0.230*[#   8]+0.034*[#   1]
          +0.034*[#   5]
    |psi|^2 = 0.989
==== e(   4) =    -6.52027 eV ==== 
     psi = 0.497*[#   2]+0.497*[#   6]
    |psi|^2 = 0.993
==== e(   5) =     2.24872 eV ==== 
     psi = 0.487*[#   2]+0.487*[#   6]
    |psi|^2 = 0.974
==== e(   6) =     4.93422 eV ==== 
     psi = 0.004*[#   3]+0.004*[#   4]+0.004*[#   7]+0.004*[#   8]
    |psi|^2 = 0.016
==== e(   7) =     5.60545 eV ==== 

    |psi|^2 = 0.002
==== e(   8) =     5.78096 eV ==== 

    |psi|^2 = 0.001
==== e(   9) =     6.71344 eV ==== 

    |psi|^2 = 0.001
==== e(  10) =     7.18559 eV ==== 

    |psi|^2 = 0.003
==== e(  11) =     8.63412 eV ==== 
     psi = 0.130*[#   1]+0.130*[#   5]+0.120*[#   3]+0.120*[#   4]+0.120*[#   7]
          +0.120*[#   8]
    |psi|^2 = 0.742
==== e(  12) =     8.72970 eV ==== 

    |psi|^2 = 0.001
==== e(  13) =     9.53807 eV ==== 
     psi = 0.006*[#   3]+0.006*[#   4]+0.006*[#   7]+0.006*[#   8]+0.002*[#   1]
          +0.002*[#   5]
    |psi|^2 = 0.028
==== e(  14) =     9.70754 eV ==== 
     psi = 0.279*[#   1]+0.279*[#   5]+0.091*[#   3]+0.091*[#   4]+0.091*[#   7]
          +0.091*[#   8]
    |psi|^2 = 0.923
==== e(  15) =    11.29726 eV ==== 

    |psi|^2 = 0.000
==== e(  16) =    12.61041 eV ==== 

    |psi|^2 = 0.003

 k =  -0.1999999998  0.3464101619  0.0000000000
==== e(   1) =   -19.09021 eV ==== 
     psi = 0.294*[#   1]+0.294*[#   5]+0.098*[#   3]+0.098*[#   4]+0.098*[#   7]
          +0.098*[#   8]
    |psi|^2 = 0.982
==== e(   2) =   -11.30785 eV ==== 
     psi = 0.185*[#   3]+0.185*[#   4]+0.185*[#   7]+0.185*[#   8]+0.128*[#   1]
          +0.128*[#   5]
    |psi|^2 = 0.996
==== e(   3) =    -9.82765 eV ==== 
     psi = 0.231*[#   3]+0.231*[#   4]+0.231*[#   7]+0.231*[#   8]+0.033*[#   1]
          +0.033*[#   5]
    |psi|^2 = 0.989
==== e(   4) =    -6.72625 eV ==== 
     psi = 0.496*[#   2]+0.496*[#   6]
    |psi|^2 = 0.992
==== e(   5) =     2.53777 eV ==== 
     psi = 0.487*[#   2]+0.487*[#   6]
    |psi|^2 = 0.973
==== e(   6) =     4.67525 eV ==== 
     psi = 0.005*[#   3]+0.005*[#   4]+0.005*[#   7]+0.005*[#   8]
    |psi|^2 = 0.018
==== e(   7) =     5.34744 eV ==== 
     psi = 0.001*[#   2]+0.001*[#   6]
    |psi|^2 = 0.002
==== e(   8) =     5.51444 eV ==== 

    |psi|^2 = 0.002
==== e(   9) =     6.45881 eV ==== 

    |psi|^2 = 0.001
==== e(  10) =     6.92240 eV ==== 

    |psi|^2 = 0.003
==== e(  11) =     8.45321 eV ==== 
     psi = 0.129*[#   1]+0.129*[#   5]+0.123*[#   3]+0.123*[#   4]+0.123*[#   7]
          +0.123*[#   8]
    |psi|^2 = 0.748
==== e(  12) =     8.49252 eV ==== 

    |psi|^2 = 0.001
==== e(  13) =     9.27977 eV ==== 
     psi = 0.007*[#   3]+0.007*[#   4]+0.007*[#   7]+0.007*[#   8]+0.003*[#   1]
          +0.003*[#   5]
    |psi|^2 = 0.034
==== e(  14) =     9.61934 eV ==== 
     psi = 0.277*[#   1]+0.277*[#   5]+0.094*[#   3]+0.094*[#   4]+0.094*[#   7]
          +0.094*[#   8]
    |psi|^2 = 0.928
==== e(  15) =    11.16798 eV ==== 

    |psi|^2 = 0.000
==== e(  16) =    12.35541 eV ==== 

    |psi|^2 = 0.003

 k =  -0.1933333331  0.3348631565  0.0000000000
==== e(   1) =   -19.26855 eV ==== 
     psi = 0.300*[#   1]+0.300*[#   5]+0.096*[#   3]+0.096*[#   4]+0.096*[#   7]
          +0.096*[#   8]
    |psi|^2 = 0.982
==== e(   2) =   -11.07933 eV ==== 
     psi = 0.187*[#   3]+0.187*[#   4]+0.187*[#   7]+0.187*[#   8]+0.123*[#   1]
          +0.123*[#   5]
    |psi|^2 = 0.996
==== e(   3) =    -9.61934 eV ==== 
     psi = 0.231*[#   3]+0.231*[#   4]+0.231*[#   7]+0.231*[#   8]+0.032*[#   1]
          +0.032*[#   5]
    |psi|^2 = 0.989
==== e(   4) =    -6.92747 eV ==== 
     psi = 0.496*[#   2]+0.496*[#   6]
    |psi|^2 = 0.991
==== e(   5) =     2.82943 eV ==== 
     psi = 0.486*[#   2]+0.486*[#   6]
    |psi|^2 = 0.972
==== e(   6) =     4.42441 eV ==== 
     psi = 0.005*[#   3]+0.005*[#   4]+0.005*[#   7]+0.005*[#   8]
    |psi|^2 = 0.021
==== e(   7) =     5.09675 eV ==== 
     psi = 0.001*[#   2]+0.001*[#   6]
    |psi|^2 = 0.003
==== e(   8) =     5.25663 eV ==== 

    |psi|^2 = 0.002
==== e(   9) =     6.21103 eV ==== 

    |psi|^2 = 0.002
==== e(  10) =     6.66761 eV ==== 

    |psi|^2 = 0.003
==== e(  11) =     8.25819 eV ==== 

    |psi|^2 = 0.001
==== e(  12) =     8.27653 eV ==== 
     psi = 0.126*[#   1]+0.126*[#   5]+0.125*[#   3]+0.125*[#   4]+0.125*[#   7]
          +0.125*[#   8]
    |psi|^2 = 0.752
==== e(  13) =     9.03000 eV ==== 
     psi = 0.009*[#   3]+0.009*[#   4]+0.009*[#   7]+0.009*[#   8]+0.004*[#   1]
          +0.004*[#   5]
    |psi|^2 = 0.042
==== e(  14) =     9.53002 eV ==== 
     psi = 0.274*[#   1]+0.274*[#   5]+0.096*[#   3]+0.096*[#   4]+0.096*[#   7]
          +0.096*[#   8]
    |psi|^2 = 0.933
==== e(  15) =    11.00951 eV ==== 

    |psi|^2 = 0.000
==== e(  16) =    12.10793 eV ==== 

    |psi|^2 = 0.003

 k =  -0.1866666665  0.3233161511  0.0000000000
==== e(   1) =   -19.44150 eV ==== 
     psi = 0.305*[#   1]+0.305*[#   5]+0.093*[#   3]+0.093*[#   4]+0.093*[#   7]
          +0.093*[#   8]
    |psi|^2 = 0.982
==== e(   2) =   -10.84741 eV ==== 
     psi = 0.190*[#   3]+0.190*[#   4]+0.190*[#   7]+0.190*[#   8]+0.118*[#   1]
          +0.118*[#   5]
    |psi|^2 = 0.996
==== e(   3) =    -9.41004 eV ==== 
     psi = 0.232*[#   3]+0.232*[#   4]+0.232*[#   7]+0.232*[#   8]+0.031*[#   1]
          +0.031*[#   5]
    |psi|^2 = 0.989
==== e(   4) =    -7.12364 eV ==== 
     psi = 0.495*[#   2]+0.495*[#   6]
    |psi|^2 = 0.990
==== e(   5) =     3.12326 eV ==== 
     psi = 0.486*[#   2]+0.486*[#   6]
    |psi|^2 = 0.971
==== e(   6) =     4.18176 eV ==== 
     psi = 0.006*[#   3]+0.006*[#   4]+0.006*[#   7]+0.006*[#   8]
    |psi|^2 = 0.023
==== e(   7) =     4.85367 eV ==== 
     psi = 0.001*[#   2]+0.001*[#   6]
    |psi|^2 = 0.003
==== e(   8) =     5.00753 eV ==== 

    |psi|^2 = 0.002
==== e(   9) =     5.97050 eV ==== 
     psi = 0.001*[#   2]+0.001*[#   6]
    |psi|^2 = 0.002
==== e(  10) =     6.42129 eV ==== 

    |psi|^2 = 0.003
==== e(  11) =     8.02826 eV ==== 

    |psi|^2 = 0.001
==== e(  12) =     8.10441 eV ==== 
     psi = 0.126*[#   3]+0.126*[#   4]+0.126*[#   7]+0.126*[#   8]+0.124*[#   1]
          +0.124*[#   5]
    |psi|^2 = 0.752
==== e(  13) =     8.78890 eV ==== 
     psi = 0.011*[#   3]+0.011*[#   4]+0.011*[#   7]+0.011*[#   8]+0.005*[#   1]
          +0.005*[#   5]
    |psi|^2 = 0.052
==== e(  14) =     9.43943 eV ==== 
     psi = 0.270*[#   1]+0.270*[#   5]+0.099*[#   3]+0.099*[#   4]+0.099*[#   7]
          +0.099*[#   8]
    |psi|^2 = 0.937
==== e(  15) =    10.83318 eV ==== 

    |psi|^2 = 0.000
==== e(  16) =    11.86816 eV ==== 

    |psi|^2 = 0.004

 k =  -0.1799999998  0.3117691457  0.0000000000
==== e(   1) =   -19.60893 eV ==== 
     psi = 0.311*[#   1]+0.311*[#   5]+0.090*[#   3]+0.090*[#   4]+0.090*[#   7]
          +0.090*[#   8]
    |psi|^2 = 0.981
==== e(   2) =   -10.61230 eV ==== 
     psi = 0.193*[#   3]+0.193*[#   4]+0.193*[#   7]+0.193*[#   8]+0.113*[#   1]
          +0.113*[#   5]
    |psi|^2 = 0.996
==== e(   3) =    -9.20017 eV ==== 
     psi = 0.232*[#   3]+0.232*[#   4]+0.232*[#   7]+0.232*[#   8]+0.030*[#   1]
          +0.030*[#   5]
    |psi|^2 = 0.990
==== e(   4) =    -7.31452 eV ==== 
     psi = 0.494*[#   2]+0.494*[#   6]
    |psi|^2 = 0.988
==== e(   5) =     3.41878 eV ==== 
     psi = 0.485*[#   2]+0.485*[#   6]
    |psi|^2 = 0.970
==== e(   6) =     3.94738 eV ==== 
     psi = 0.006*[#   3]+0.006*[#   4]+0.006*[#   7]+0.006*[#   8]
    |psi|^2 = 0.025
==== e(   7) =     4.61842 eV ==== 
     psi = 0.002*[#   2]+0.002*[#   6]
    |psi|^2 = 0.003
==== e(   8) =     4.76714 eV ==== 

    |psi|^2 = 0.002
==== e(   9) =     5.73751 eV ==== 
     psi = 0.001*[#   2]+0.001*[#   6]
    |psi|^2 = 0.003
==== e(  10) =     6.18346 eV ==== 

    |psi|^2 = 0.003
==== e(  11) =     7.80380 eV ==== 

    |psi|^2 = 0.002
==== e(  12) =     7.93717 eV ==== 
     psi = 0.127*[#   3]+0.127*[#   4]+0.127*[#   7]+0.127*[#   8]+0.121*[#   1]
          +0.121*[#   5]
    |psi|^2 = 0.750
==== e(  13) =     8.55660 eV ==== 
     psi = 0.013*[#   3]+0.013*[#   4]+0.013*[#   7]+0.013*[#   8]+0.006*[#   1]
          +0.006*[#   5]
    |psi|^2 = 0.064
==== e(  14) =     9.34743 eV ==== 
     psi = 0.264*[#   1]+0.264*[#   5]+0.103*[#   3]+0.103*[#   4]+0.103*[#   7]
          +0.103*[#   8]
    |psi|^2 = 0.940
==== e(  15) =    10.64738 eV ==== 

    |psi|^2 = 0.001
==== e(  16) =    11.63624 eV ==== 
     psi = 0.001*[#   3]+0.001*[#   4]+0.001*[#   7]+0.001*[#   8]
    |psi|^2 = 0.004

 k =  -0.1733333332  0.3002221403  0.0000000000
==== e(   1) =   -19.77077 eV ==== 
     psi = 0.317*[#   1]+0.317*[#   5]+0.087*[#   3]+0.087*[#   4]+0.087*[#   7]
          +0.087*[#   8]
    |psi|^2 = 0.981
==== e(   2) =   -10.37427 eV ==== 
     psi = 0.195*[#   3]+0.195*[#   4]+0.195*[#   7]+0.195*[#   8]+0.108*[#   1]
          +0.108*[#   5]
    |psi|^2 = 0.996
==== e(   3) =    -8.99021 eV ==== 
     psi = 0.233*[#   3]+0.233*[#   4]+0.233*[#   7]+0.233*[#   8]+0.028*[#   1]
          +0.028*[#   5]
    |psi|^2 = 0.990
==== e(   4) =    -7.49987 eV ==== 
     psi = 0.493*[#   2]+0.493*[#   6]
    |psi|^2 = 0.987
==== e(   5) =     3.71546 eV ==== 
     psi = 0.485*[#   2]+0.485*[#   6]
    |psi|^2 = 0.969
==== e(   6) =     3.72130 eV ==== 
     psi = 0.007*[#   3]+0.007*[#   4]+0.007*[#   7]+0.007*[#   8]
    |psi|^2 = 0.027
==== e(   7) =     4.39119 eV ==== 
     psi = 0.002*[#   2]+0.002*[#   6]
    |psi|^2 = 0.004
==== e(   8) =     4.53548 eV ==== 

    |psi|^2 = 0.003
==== e(   9) =     5.51227 eV ==== 
     psi = 0.002*[#   2]+0.002*[#   6]
    |psi|^2 = 0.003
==== e(  10) =     5.95417 eV ==== 

    |psi|^2 = 0.003
==== e(  11) =     7.58555 eV ==== 
     psi = 0.001*[#   2]+0.001*[#   6]
    |psi|^2 = 0.002
==== e(  12) =     7.77502 eV ==== 
     psi = 0.127*[#   3]+0.127*[#   4]+0.127*[#   7]+0.127*[#   8]+0.117*[#   1]
          +0.117*[#   5]
    |psi|^2 = 0.743
==== e(  13) =     8.33328 eV ==== 
     psi = 0.016*[#   3]+0.016*[#   4]+0.016*[#   7]+0.016*[#   8]+0.008*[#   1]
          +0.008*[#   5]
    |psi|^2 = 0.079
==== e(  14) =     9.25372 eV ==== 
     psi = 0.258*[#   1]+0.258*[#   5]+0.107*[#   3]+0.107*[#   4]+0.107*[#   7]
          +0.107*[#   8]
    |psi|^2 = 0.943
==== e(  15) =    10.45776 eV ==== 

    |psi|^2 = 0.001
==== e(  16) =    11.41229 eV ==== 
     psi = 0.001*[#   3]+0.001*[#   4]+0.001*[#   7]+0.001*[#   8]
    |psi|^2 = 0.005

 k =  -0.1666666665  0.2886751349  0.0000000000
==== e(   1) =   -19.92694 eV ==== 
     psi = 0.324*[#   1]+0.324*[#   5]+0.084*[#   3]+0.084*[#   4]+0.084*[#   7]
          +0.084*[#   8]
    |psi|^2 = 0.981
==== e(   2) =   -10.13362 eV ==== 
     psi = 0.198*[#   3]+0.198*[#   4]+0.198*[#   7]+0.198*[#   8]+0.103*[#   1]
          +0.103*[#   5]
    |psi|^2 = 0.996
==== e(   3) =    -8.78064 eV ==== 
     psi = 0.234*[#   3]+0.234*[#   4]+0.234*[#   7]+0.234*[#   8]+0.027*[#   1]
          +0.027*[#   5]
    |psi|^2 = 0.990
==== e(   4) =    -7.67949 eV ==== 
     psi = 0.493*[#   2]+0.493*[#   6]
    |psi|^2 = 0.985
==== e(   5) =     3.50356 eV ==== 
     psi = 0.007*[#   3]+0.007*[#   4]+0.007*[#   7]+0.007*[#   8]
    |psi|^2 = 0.029
==== e(   6) =     4.01274 eV ==== 
     psi = 0.484*[#   2]+0.484*[#   6]
    |psi|^2 = 0.969
==== e(   7) =     4.17209 eV ==== 
     psi = 0.002*[#   2]+0.002*[#   6]
    |psi|^2 = 0.005
==== e(   8) =     4.31254 eV ==== 

    |psi|^2 = 0.003
==== e(   9) =     5.29495 eV ==== 
     psi = 0.002*[#   2]+0.002*[#   6]
    |psi|^2 = 0.004
==== e(  10) =     5.73344 eV ==== 

    |psi|^2 = 0.003
==== e(  11) =     7.37405 eV ==== 
     psi = 0.001*[#   2]+0.001*[#   6]
    |psi|^2 = 0.002
==== e(  12) =     7.61807 eV ==== 
     psi = 0.127*[#   3]+0.127*[#   4]+0.127*[#   7]+0.127*[#   8]+0.112*[#   1]
          +0.112*[#   5]
    |psi|^2 = 0.732
==== e(  13) =     8.11912 eV ==== 
     psi = 0.020*[#   3]+0.020*[#   4]+0.020*[#   7]+0.020*[#   8]+0.010*[#   1]
          +0.010*[#   5]
    |psi|^2 = 0.098
==== e(  14) =     9.15793 eV ==== 
     psi = 0.251*[#   1]+0.251*[#   5]+0.111*[#   3]+0.111*[#   4]+0.111*[#   7]
          +0.111*[#   8]
    |psi|^2 = 0.945
==== e(  15) =    10.26801 eV ==== 

    |psi|^2 = 0.001
==== e(  16) =    11.19638 eV ==== 
     psi = 0.001*[#   3]+0.001*[#   4]+0.001*[#   7]+0.001*[#   8]
    |psi|^2 = 0.005

 k =  -0.1599999998  0.2771281295  0.0000000000
==== e(   1) =   -20.07740 eV ==== 
     psi = 0.330*[#   1]+0.330*[#   5]+0.080*[#   3]+0.080*[#   4]+0.080*[#   7]
          +0.080*[#   8]
    |psi|^2 = 0.981
==== e(   2) =    -9.89062 eV ==== 
     psi = 0.200*[#   3]+0.200*[#   4]+0.200*[#   7]+0.200*[#   8]+0.098*[#   1]
          +0.098*[#   5]
    |psi|^2 = 0.997
==== e(   3) =    -8.57195 eV ==== 
     psi = 0.235*[#   3]+0.235*[#   4]+0.235*[#   7]+0.235*[#   8]+0.025*[#   1]
          +0.025*[#   5]
    |psi|^2 = 0.990
==== e(   4) =    -7.85320 eV ==== 
     psi = 0.492*[#   2]+0.492*[#   6]
    |psi|^2 = 0.983
==== e(   5) =     3.29421 eV ==== 
     psi = 0.008*[#   3]+0.008*[#   4]+0.008*[#   7]+0.008*[#   8]
    |psi|^2 = 0.031
==== e(   6) =     3.96123 eV ==== 
     psi = 0.003*[#   2]+0.003*[#   6]
    |psi|^2 = 0.005
==== e(   7) =     4.09833 eV ==== 

    |psi|^2 = 0.003
==== e(   8) =     4.31001 eV ==== 
     psi = 0.484*[#   2]+0.484*[#   6]
    |psi|^2 = 0.968
==== e(   9) =     5.08570 eV ==== 
     psi = 0.002*[#   2]+0.002*[#   6]
    |psi|^2 = 0.004
==== e(  10) =     5.52129 eV ==== 

    |psi|^2 = 0.003
==== e(  11) =     7.16969 eV ==== 
     psi = 0.001*[#   2]+0.001*[#   6]
    |psi|^2 = 0.003
==== e(  12) =     7.46637 eV ==== 
     psi = 0.125*[#   3]+0.125*[#   4]+0.125*[#   7]+0.125*[#   8]+0.107*[#   1]
          +0.107*[#   5]
    |psi|^2 = 0.714
==== e(  13) =     7.91437 eV ==== 
     psi = 0.025*[#   3]+0.025*[#   4]+0.025*[#   7]+0.025*[#   8]+0.012*[#   1]
          +0.012*[#   5]
    |psi|^2 = 0.123
==== e(  14) =     9.05963 eV ==== 
     psi = 0.242*[#   1]+0.242*[#   5]+0.116*[#   3]+0.116*[#   4]+0.116*[#   7]
          +0.116*[#   8]
    |psi|^2 = 0.947
==== e(  15) =    10.08058 eV ==== 

    |psi|^2 = 0.001
==== e(  16) =    10.98861 eV ==== 
     psi = 0.001*[#   3]+0.001*[#   4]+0.001*[#   7]+0.001*[#   8]
    |psi|^2 = 0.006

 k =  -0.1533333332  0.2655811241  0.0000000000
==== e(   1) =   -20.22205 eV ==== 
     psi = 0.337*[#   1]+0.337*[#   5]+0.077*[#   3]+0.077*[#   4]+0.077*[#   7]
          +0.077*[#   8]
    |psi|^2 = 0.981
==== e(   2) =    -9.64566 eV ==== 
     psi = 0.203*[#   3]+0.203*[#   4]+0.203*[#   7]+0.203*[#   8]+0.093*[#   1]
          +0.093*[#   5]
    |psi|^2 = 0.997
==== e(   3) =    -8.36466 eV ==== 
     psi = 0.236*[#   3]+0.236*[#   4]+0.236*[#   7]+0.236*[#   8]+0.024*[#   1]
          +0.024*[#   5]
    |psi|^2 = 0.990
==== e(   4) =    -8.02081 eV ==== 
     psi = 0.491*[#   2]+0.491*[#   6]
    |psi|^2 = 0.981
==== e(   5) =     3.09328 eV ==== 
     psi = 0.008*[#   3]+0.008*[#   4]+0.008*[#   7]+0.008*[#   8]
    |psi|^2 = 0.032
==== e(   6) =     3.75868 eV ==== 
     psi = 0.003*[#   2]+0.003*[#   6]
    |psi|^2 = 0.006
==== e(   7) =     3.89286 eV ==== 

    |psi|^2 = 0.004
==== e(   8) =     4.60661 eV ==== 
     psi = 0.484*[#   2]+0.484*[#   6]
    |psi|^2 = 0.968
==== e(   9) =     4.88460 eV ==== 
     psi = 0.002*[#   2]+0.002*[#   6]
    |psi|^2 = 0.005
==== e(  10) =     5.31774 eV ==== 

    |psi|^2 = 0.003
==== e(  11) =     6.97277 eV ==== 
     psi = 0.002*[#   2]+0.002*[#   6]
    |psi|^2 = 0.003
==== e(  12) =     7.31983 eV ==== 
     psi = 0.122*[#   3]+0.122*[#   4]+0.122*[#   7]+0.122*[#   8]+0.101*[#   1]
          +0.101*[#   5]
    |psi|^2 = 0.689
==== e(  13) =     7.71936 eV ==== 
     psi = 0.031*[#   3]+0.031*[#   4]+0.031*[#   7]+0.031*[#   8]+0.015*[#   1]
          +0.015*[#   5]
    |psi|^2 = 0.154
==== e(  14) =     8.95827 eV ==== 
     psi = 0.232*[#   1]+0.232*[#   5]+0.121*[#   3]+0.121*[#   4]+0.121*[#   7]
          +0.121*[#   8]
    |psi|^2 = 0.948
==== e(  15) =     9.89712 eV ==== 

    |psi|^2 = 0.002
==== e(  16) =    10.78901 eV ==== 
     psi = 0.002*[#   3]+0.002*[#   4]+0.002*[#   7]+0.002*[#   8]
    |psi|^2 = 0.006

 k =  -0.1466666665  0.2540341187  0.0000000000
==== e(   1) =   -20.36085 eV ==== 
     psi = 0.344*[#   1]+0.344*[#   5]+0.073*[#   3]+0.073*[#   4]+0.073*[#   7]
          +0.073*[#   8]
    |psi|^2 = 0.981
==== e(   2) =    -9.39913 eV ==== 
     psi = 0.205*[#   3]+0.205*[#   4]+0.205*[#   7]+0.205*[#   8]+0.087*[#   1]
          +0.087*[#   5]
    |psi|^2 = 0.997
==== e(   3) =    -8.18218 eV ==== 
     psi = 0.490*[#   2]+0.490*[#   6]
    |psi|^2 = 0.979
==== e(   4) =    -8.15932 eV ==== 
     psi = 0.237*[#   3]+0.237*[#   4]+0.237*[#   7]+0.237*[#   8]+0.022*[#   1]
          +0.022*[#   5]
    |psi|^2 = 0.991
==== e(   5) =     2.90078 eV ==== 
     psi = 0.008*[#   3]+0.008*[#   4]+0.008*[#   7]+0.008*[#   8]
    |psi|^2 = 0.034
==== e(   6) =     3.56452 eV ==== 
     psi = 0.003*[#   2]+0.003*[#   6]
    |psi|^2 = 0.006
==== e(   7) =     3.69612 eV ==== 

    |psi|^2 = 0.004
==== e(   8) =     4.69175 eV ==== 
     psi = 0.003*[#   2]+0.003*[#   6]
    |psi|^2 = 0.005
==== e(   9) =     4.90182 eV ==== 
     psi = 0.484*[#   2]+0.484*[#   6]
    |psi|^2 = 0.968
==== e(  10) =     5.12281 eV ==== 

    |psi|^2 = 0.004
==== e(  11) =     6.78351 eV ==== 
     psi = 0.002*[#   2]+0.002*[#   6]
    |psi|^2 = 0.004
==== e(  12) =     7.17824 eV ==== 
     psi = 0.117*[#   3]+0.117*[#   4]+0.117*[#   7]+0.117*[#   8]+0.093*[#   1]
          +0.093*[#   5]
    |psi|^2 = 0.654
==== e(  13) =     7.53451 eV ==== 
     psi = 0.039*[#   3]+0.039*[#   4]+0.039*[#   7]+0.039*[#   8]+0.020*[#   1]
          +0.020*[#   5]
    |psi|^2 = 0.196
==== e(  14) =     8.85319 eV ==== 
     psi = 0.220*[#   1]+0.220*[#   5]+0.127*[#   3]+0.127*[#   4]+0.127*[#   7]
          +0.127*[#   8]
    |psi|^2 = 0.949
==== e(  15) =     9.71876 eV ==== 

    |psi|^2 = 0.002
==== e(  16) =    10.59763 eV ==== 
     psi = 0.002*[#   3]+0.002*[#   4]+0.002*[#   7]+0.002*[#   8]
    |psi|^2 = 0.007

 k =  -0.1399999999  0.2424871133  0.0000000000
==== e(   1) =   -20.49376 eV ==== 
     psi = 0.351*[#   1]+0.351*[#   5]+0.070*[#   3]+0.070*[#   4]+0.070*[#   7]
          +0.070*[#   8]
    |psi|^2 = 0.981
==== e(   2) =    -9.15150 eV ==== 
     psi = 0.208*[#   3]+0.208*[#   4]+0.208*[#   7]+0.208*[#   8]+0.082*[#   1]
          +0.082*[#   5]
    |psi|^2 = 0.997
==== e(   3) =    -8.33716 eV ==== 
     psi = 0.489*[#   2]+0.489*[#   6]
    |psi|^2 = 0.977
==== e(   4) =    -7.95651 eV ==== 
     psi = 0.238*[#   3]+0.238*[#   4]+0.238*[#   7]+0.238*[#   8]+0.020*[#   1]
          +0.020*[#   5]
    |psi|^2 = 0.991
==== e(   5) =     2.71674 eV ==== 
     psi = 0.009*[#   3]+0.009*[#   4]+0.009*[#   7]+0.009*[#   8]
    |psi|^2 = 0.035
==== e(   6) =     3.37879 eV ==== 
     psi = 0.003*[#   2]+0.003*[#   6]
    |psi|^2 = 0.007
==== e(   7) =     3.50812 eV ==== 

    |psi|^2 = 0.004
==== e(   8) =     4.50721 eV ==== 
     psi = 0.003*[#   2]+0.003*[#   6]
    |psi|^2 = 0.006
==== e(   9) =     4.93651 eV ==== 

    |psi|^2 = 0.004
==== e(  10) =     5.19489 eV ==== 
     psi = 0.484*[#   2]+0.484*[#   6]
    |psi|^2 = 0.968
==== e(  11) =     6.60208 eV ==== 
     psi = 0.002*[#   2]+0.002*[#   6]
    |psi|^2 = 0.004
==== e(  12) =     7.04116 eV ==== 
     psi = 0.109*[#   3]+0.109*[#   4]+0.109*[#   7]+0.109*[#   8]+0.084*[#   1]
          +0.084*[#   5]
    |psi|^2 = 0.606
==== e(  13) =     7.36036 eV ==== 
     psi = 0.050*[#   3]+0.050*[#   4]+0.050*[#   7]+0.050*[#   8]+0.025*[#   1]
          +0.025*[#   5]
    |psi|^2 = 0.249
==== e(  14) =     8.74360 eV ==== 
     psi = 0.207*[#   1]+0.207*[#   5]+0.134*[#   3]+0.134*[#   4]+0.134*[#   7]
          +0.134*[#   8]
    |psi|^2 = 0.949
==== e(  15) =     9.54630 eV ==== 
     psi = 0.001*[#   2]+0.001*[#   6]
    |psi|^2 = 0.002
==== e(  16) =    10.41453 eV ==== 
     psi = 0.002*[#   3]+0.002*[#   4]+0.002*[#   7]+0.002*[#   8]
    |psi|^2 = 0.007

 k =  -0.1333333332  0.2309401079  0.0000000000
==== e(   1) =   -20.62072 eV ==== 
     psi = 0.359*[#   1]+0.359*[#   5]+0.066*[#   3]+0.066*[#   4]+0.066*[#   7]
          +0.066*[#   8]
    |psi|^2 = 0.981
==== e(   2) =    -8.90326 eV ==== 
     psi = 0.211*[#   3]+0.211*[#   4]+0.211*[#   7]+0.211*[#   8]+0.077*[#   1]
          +0.077*[#   5]
    |psi|^2 = 0.997
==== e(   3) =    -8.48563 eV ==== 
     psi = 0.488*[#   2]+0.488*[#   6]
    |psi|^2 = 0.975
==== e(   4) =    -7.75682 eV ==== 
     psi = 0.239*[#   3]+0.239*[#   4]+0.239*[#   7]+0.239*[#   8]+0.018*[#   1]
          +0.018*[#   5]
    |psi|^2 = 0.991
==== e(   5) =     2.54119 eV ==== 
     psi = 0.009*[#   3]+0.009*[#   4]+0.009*[#   7]+0.009*[#   8]
    |psi|^2 = 0.036
==== e(   6) =     3.20154 eV ==== 
     psi = 0.004*[#   2]+0.004*[#   6]
    |psi|^2 = 0.008
==== e(   7) =     3.32886 eV ==== 
     psi = 0.001*[#   3]+0.001*[#   4]+0.001*[#   7]+0.001*[#   8]
    |psi|^2 = 0.004
==== e(   8) =     4.33104 eV ==== 
     psi = 0.003*[#   2]+0.003*[#   6]
    |psi|^2 = 0.007
==== e(   9) =     4.75884 eV ==== 

    |psi|^2 = 0.004
==== e(  10) =     5.48498 eV ==== 
     psi = 0.484*[#   2]+0.484*[#   6]
    |psi|^2 = 0.968
==== e(  11) =     6.42863 eV ==== 
     psi = 0.002*[#   2]+0.002*[#   6]
    |psi|^2 = 0.005
==== e(  12) =     6.90810 eV ==== 
     psi = 0.099*[#   3]+0.099*[#   4]+0.099*[#   7]+0.099*[#   8]+0.074*[#   1]
          +0.074*[#   5]
    |psi|^2 = 0.543
==== e(  13) =     7.19760 eV ==== 
     psi = 0.064*[#   3]+0.064*[#   4]+0.064*[#   7]+0.064*[#   8]+0.031*[#   1]
          +0.031*[#   5]
    |psi|^2 = 0.317
==== e(  14) =     8.62873 eV ==== 
     psi = 0.192*[#   1]+0.192*[#   5]+0.141*[#   3]+0.141*[#   4]+0.141*[#   7]
          +0.141*[#   8]
    |psi|^2 = 0.949
==== e(  15) =     9.38032 eV ==== 
     psi = 0.001*[#   2]+0.001*[#   6]
    |psi|^2 = 0.003
==== e(  16) =    10.23972 eV ==== 
     psi = 0.002*[#   3]+0.002*[#   4]+0.002*[#   7]+0.002*[#   8]
    |psi|^2 = 0.008

 k =  -0.1266666665  0.2193931025  0.0000000000
==== e(   1) =   -20.74171 eV ==== 
     psi = 0.367*[#   1]+0.367*[#   5]+0.062*[#   3]+0.062*[#   4]+0.062*[#   7]
          +0.062*[#   8]
    |psi|^2 = 0.982
==== e(   2) =    -8.65500 eV ==== 
     psi = 0.213*[#   3]+0.213*[#   4]+0.213*[#   7]+0.213*[#   8]+0.072*[#   1]
          +0.072*[#   5]
    |psi|^2 = 0.997
==== e(   3) =    -8.62746 eV ==== 
     psi = 0.487*[#   2]+0.487*[#   6]
    |psi|^2 = 0.973
==== e(   4) =    -7.56086 eV ==== 
     psi = 0.240*[#   3]+0.240*[#   4]+0.240*[#   7]+0.240*[#   8]+0.016*[#   1]
          +0.016*[#   5]
    |psi|^2 = 0.992
==== e(   5) =     2.37414 eV ==== 
     psi = 0.009*[#   3]+0.009*[#   4]+0.009*[#   7]+0.009*[#   8]
    |psi|^2 = 0.037
==== e(   6) =     3.03281 eV ==== 
     psi = 0.004*[#   2]+0.004*[#   6]
    |psi|^2 = 0.008
==== e(   7) =     3.15834 eV ==== 
     psi = 0.001*[#   3]+0.001*[#   4]+0.001*[#   7]+0.001*[#   8]
    |psi|^2 = 0.004
==== e(   8) =     4.16329 eV ==== 
     psi = 0.004*[#   2]+0.004*[#   6]
    |psi|^2 = 0.007
==== e(   9) =     4.58982 eV ==== 
     psi = 0.001*[#   3]+0.001*[#   4]+0.001*[#   7]+0.001*[#   8]
    |psi|^2 = 0.004
==== e(  10) =     5.77122 eV ==== 
     psi = 0.484*[#   2]+0.484*[#   6]
    |psi|^2 = 0.969
==== e(  11) =     6.26327 eV ==== 
     psi = 0.002*[#   2]+0.002*[#   6]
    |psi|^2 = 0.005
==== e(  12) =     6.77840 eV ==== 
     psi = 0.086*[#   3]+0.086*[#   4]+0.086*[#   7]+0.086*[#   8]+0.062*[#   1]
          +0.062*[#   5]
    |psi|^2 = 0.466
==== e(  13) =     7.04694 eV ==== 
     psi = 0.080*[#   3]+0.080*[#   4]+0.080*[#   7]+0.080*[#   8]+0.039*[#   1]
          +0.039*[#   5]
    |psi|^2 = 0.399
==== e(  14) =     8.50767 eV ==== 
     psi = 0.176*[#   1]+0.176*[#   5]+0.149*[#   3]+0.149*[#   4]+0.149*[#   7]
          +0.149*[#   8]
    |psi|^2 = 0.949
==== e(  15) =     9.22125 eV ==== 
     psi = 0.001*[#   2]+0.001*[#   6]
    |psi|^2 = 0.003
==== e(  16) =    10.07324 eV ==== 
     psi = 0.002*[#   3]+0.002*[#   4]+0.002*[#   7]+0.002*[#   8]
    |psi|^2 = 0.008

 k =  -0.1199999999  0.2078460971  0.0000000000
==== e(   1) =   -20.85668 eV ==== 
     psi = 0.374*[#   1]+0.374*[#   5]+0.058*[#   3]+0.058*[#   4]+0.058*[#   7]
          +0.058*[#   8]
    |psi|^2 = 0.982
==== e(   2) =    -8.76256 eV ==== 
     psi = 0.485*[#   2]+0.485*[#   6]
    |psi|^2 = 0.971
==== e(   3) =    -8.40734 eV ==== 
     psi = 0.216*[#   3]+0.216*[#   4]+0.216*[#   7]+0.216*[#   8]+0.067*[#   1]
          +0.067*[#   5]
    |psi|^2 = 0.997
==== e(   4) =    -7.36928 eV ==== 
     psi = 0.241*[#   3]+0.241*[#   4]+0.241*[#   7]+0.241*[#   8]+0.015*[#   1]
          +0.015*[#   5]
    |psi|^2 = 0.992
==== e(   5) =     2.21560 eV ==== 
     psi = 0.009*[#   3]+0.009*[#   4]+0.009*[#   7]+0.009*[#   8]
    |psi|^2 = 0.037
==== e(   6) =     2.87261 eV ==== 
     psi = 0.004*[#   2]+0.004*[#   6]
    |psi|^2 = 0.009
==== e(   7) =     2.99656 eV ==== 
     psi = 0.001*[#   3]+0.001*[#   4]+0.001*[#   7]+0.001*[#   8]
    |psi|^2 = 0.004
==== e(   8) =     4.00399 eV ==== 
     psi = 0.004*[#   2]+0.004*[#   6]
    |psi|^2 = 0.008
==== e(   9) =     4.42946 eV ==== 
     psi = 0.001*[#   3]+0.001*[#   4]+0.001*[#   7]+0.001*[#   8]
    |psi|^2 = 0.005
==== e(  10) =     6.05268 eV ==== 
     psi = 0.485*[#   2]+0.485*[#   6]
    |psi|^2 = 0.970
==== e(  11) =     6.10608 eV ==== 
     psi = 0.003*[#   2]+0.003*[#   6]
    |psi|^2 = 0.005
==== e(  12) =     6.65157 eV ==== 
     psi = 0.070*[#   3]+0.070*[#   4]+0.070*[#   7]+0.070*[#   8]+0.050*[#   1]
          +0.050*[#   5]
    |psi|^2 = 0.381
==== e(  13) =     6.90897 eV ==== 
     psi = 0.099*[#   3]+0.099*[#   4]+0.099*[#   7]+0.099*[#   8]+0.046*[#   1]
          +0.046*[#   5]
    |psi|^2 = 0.489
==== e(  14) =     8.37957 eV ==== 
     psi = 0.158*[#   1]+0.158*[#   5]+0.158*[#   3]+0.158*[#   4]+0.158*[#   7]
          +0.158*[#   8]
    |psi|^2 = 0.949
==== e(  15) =     9.06941 eV ==== 
     psi = 0.002*[#   2]+0.002*[#   6]
    |psi|^2 = 0.003
==== e(  16) =     9.91510 eV ==== 
     psi = 0.002*[#   3]+0.002*[#   4]+0.002*[#   7]+0.002*[#   8]
    |psi|^2 = 0.008

 k =  -0.1133333332  0.1962990917  0.0000000000
==== e(   1) =   -20.96559 eV ==== 
     psi = 0.383*[#   1]+0.383*[#   5]+0.054*[#   3]+0.054*[#   4]+0.054*[#   7]
          +0.054*[#   8]
    |psi|^2 = 0.982
==== e(   2) =    -8.89081 eV ==== 
     psi = 0.484*[#   2]+0.484*[#   6]
    |psi|^2 = 0.969
==== e(   3) =    -8.16103 eV ==== 
     psi = 0.218*[#   3]+0.218*[#   4]+0.218*[#   7]+0.218*[#   8]+0.062*[#   1]
          +0.062*[#   5]
    |psi|^2 = 0.997
==== e(   4) =    -7.18273 eV ==== 
     psi = 0.242*[#   3]+0.242*[#   4]+0.242*[#   7]+0.242*[#   8]+0.013*[#   1]
          +0.013*[#   5]
    |psi|^2 = 0.992
==== e(   5) =     2.06559 eV ==== 
     psi = 0.009*[#   3]+0.009*[#   4]+0.009*[#   7]+0.009*[#   8]
    |psi|^2 = 0.037
==== e(   6) =     2.72098 eV ==== 
     psi = 0.005*[#   2]+0.005*[#   6]
    |psi|^2 = 0.010
==== e(   7) =     2.84353 eV ==== 
     psi = 0.001*[#   3]+0.001*[#   4]+0.001*[#   7]+0.001*[#   8]
    |psi|^2 = 0.005
==== e(   8) =     3.85318 eV ==== 
     psi = 0.004*[#   2]+0.004*[#   6]
    |psi|^2 = 0.009
==== e(   9) =     4.27776 eV ==== 
     psi = 0.001*[#   3]+0.001*[#   4]+0.001*[#   7]+0.001*[#   8]
    |psi|^2 = 0.005
==== e(  10) =     5.95714 eV ==== 
     psi = 0.003*[#   2]+0.003*[#   6]
    |psi|^2 = 0.006
==== e(  11) =     6.32836 eV ==== 
     psi = 0.485*[#   2]+0.485*[#   6]
    |psi|^2 = 0.971
==== e(  12) =     6.52748 eV ==== 
     psi = 0.055*[#   3]+0.055*[#   4]+0.055*[#   7]+0.055*[#   8]+0.038*[#   1]
          +0.038*[#   5]
    |psi|^2 = 0.295
==== e(  13) =     6.78384 eV ==== 
     psi = 0.118*[#   3]+0.118*[#   4]+0.118*[#   7]+0.118*[#   8]+0.053*[#   1]
          +0.053*[#   5]
    |psi|^2 = 0.580
==== e(  14) =     8.24363 eV ==== 
     psi = 0.167*[#   3]+0.167*[#   4]+0.167*[#   7]+0.167*[#   8]+0.140*[#   1]
          +0.140*[#   5]
    |psi|^2 = 0.948
==== e(  15) =     8.92506 eV ==== 
     psi = 0.002*[#   2]+0.002*[#   6]
    |psi|^2 = 0.003
==== e(  16) =     9.76534 eV ==== 
     psi = 0.002*[#   3]+0.002*[#   4]+0.002*[#   7]+0.002*[#   8]
    |psi|^2 = 0.008

 k =  -0.1066666666  0.1847520863  0.0000000000
==== e(   1) =   -21.06841 eV ==== 
     psi = 0.391*[#   1]+0.391*[#   5]+0.050*[#   3]+0.050*[#   4]+0.050*[#   7]
          +0.050*[#   8]
    |psi|^2 = 0.982
==== e(   2) =    -9.01214 eV ==== 
     psi = 0.483*[#   2]+0.483*[#   6]
    |psi|^2 = 0.966
==== e(   3) =    -7.91689 eV ==== 
     psi = 0.221*[#   3]+0.221*[#   4]+0.221*[#   7]+0.221*[#   8]+0.057*[#   1]
          +0.057*[#   5]
    |psi|^2 = 0.997
==== e(   4) =    -7.00187 eV ==== 
     psi = 0.243*[#   3]+0.243*[#   4]+0.243*[#   7]+0.243*[#   8]+0.011*[#   1]
          +0.011*[#   5]
    |psi|^2 = 0.993
==== e(   5) =     1.92413 eV ==== 
     psi = 0.009*[#   3]+0.009*[#   4]+0.009*[#   7]+0.009*[#   8]
    |psi|^2 = 0.036
==== e(   6) =     2.57794 eV ==== 
     psi = 0.005*[#   2]+0.005*[#   6]
    |psi|^2 = 0.010
==== e(   7) =     2.69924 eV ==== 
     psi = 0.001*[#   3]+0.001*[#   4]+0.001*[#   7]+0.001*[#   8]
    |psi|^2 = 0.005
==== e(   8) =     3.71089 eV ==== 
     psi = 0.005*[#   2]+0.005*[#   6]
    |psi|^2 = 0.009
==== e(   9) =     4.13472 eV ==== 
     psi = 0.001*[#   3]+0.001*[#   4]+0.001*[#   7]+0.001*[#   8]
    |psi|^2 = 0.005
==== e(  10) =     5.81650 eV ==== 
     psi = 0.003*[#   2]+0.003*[#   6]
    |psi|^2 = 0.006
==== e(  11) =     6.40652 eV ==== 
     psi = 0.041*[#   3]+0.041*[#   4]+0.041*[#   7]+0.041*[#   8]+0.028*[#   1]
          +0.028*[#   5]
    |psi|^2 = 0.219
==== e(  12) =     6.59723 eV ==== 
     psi = 0.486*[#   2]+0.486*[#   6]
    |psi|^2 = 0.972
==== e(  13) =     6.67116 eV ==== 
     psi = 0.136*[#   3]+0.136*[#   4]+0.136*[#   7]+0.136*[#   8]+0.058*[#   1]
          +0.058*[#   5]
    |psi|^2 = 0.661
==== e(  14) =     8.09932 eV ==== 
     psi = 0.177*[#   3]+0.177*[#   4]+0.177*[#   7]+0.177*[#   8]+0.121*[#   1]
          +0.121*[#   5]
    |psi|^2 = 0.948
==== e(  15) =     8.78839 eV ==== 
     psi = 0.002*[#   2]+0.002*[#   6]
    |psi|^2 = 0.004
==== e(  16) =     9.62396 eV ==== 
     psi = 0.002*[#   3]+0.002*[#   4]+0.002*[#   7]+0.002*[#   8]
    |psi|^2 = 0.008

 k =  -0.0999999999  0.1732050809  0.0000000000
==== e(   1) =   -21.16512 eV ==== 
     psi = 0.400*[#   1]+0.400*[#   5]+0.046*[#   3]+0.046*[#   4]+0.046*[#   7]
          +0.046*[#   8]
    |psi|^2 = 0.982
==== e(   2) =    -9.12647 eV ==== 
     psi = 0.482*[#   2]+0.482*[#   6]
    |psi|^2 = 0.964
==== e(   3) =    -7.67582 eV ==== 
     psi = 0.223*[#   3]+0.223*[#   4]+0.223*[#   7]+0.223*[#   8]+0.052*[#   1]
          +0.052*[#   5]
    |psi|^2 = 0.997
==== e(   4) =    -6.82739 eV ==== 
     psi = 0.244*[#   3]+0.244*[#   4]+0.244*[#   7]+0.244*[#   8]+0.009*[#   1]
          +0.009*[#   5]
    |psi|^2 = 0.994
==== e(   5) =     1.79121 eV ==== 
     psi = 0.009*[#   3]+0.009*[#   4]+0.009*[#   7]+0.009*[#   8]
    |psi|^2 = 0.036
==== e(   6) =     2.44351 eV ==== 
     psi = 0.005*[#   2]+0.005*[#   6]
    |psi|^2 = 0.011
==== e(   7) =     2.56370 eV ==== 
     psi = 0.001*[#   3]+0.001*[#   4]+0.001*[#   7]+0.001*[#   8]
    |psi|^2 = 0.005
==== e(   8) =     3.57714 eV ==== 
     psi = 0.005*[#   2]+0.005*[#   6]
    |psi|^2 = 0.010
==== e(   9) =     4.00036 eV ==== 
     psi = 0.001*[#   3]+0.001*[#   4]+0.001*[#   7]+0.001*[#   8]
    |psi|^2 = 0.005
==== e(  10) =     5.68422 eV ==== 
     psi = 0.003*[#   2]+0.003*[#   6]
    |psi|^2 = 0.007
==== e(  11) =     6.28952 eV ==== 
     psi = 0.029*[#   3]+0.029*[#   4]+0.029*[#   7]+0.029*[#   8]+0.020*[#   1]
          +0.020*[#   5]
    |psi|^2 = 0.158
==== e(  12) =     6.57009 eV ==== 
     psi = 0.152*[#   3]+0.152*[#   4]+0.152*[#   7]+0.152*[#   8]+0.060*[#   1]
          +0.060*[#   5]
    |psi|^2 = 0.727
==== e(  13) =     6.85818 eV ==== 
     psi = 0.487*[#   2]+0.487*[#   6]
    |psi|^2 = 0.973
==== e(  14) =     7.94641 eV ==== 
     psi = 0.186*[#   3]+0.186*[#   4]+0.186*[#   7]+0.186*[#   8]+0.102*[#   1]
          +0.102*[#   5]
    |psi|^2 = 0.947
==== e(  15) =     8.65955 eV ==== 
     psi = 0.002*[#   2]+0.002*[#   6]
    |psi|^2 = 0.004
==== e(  16) =     9.49099 eV ==== 
     psi = 0.002*[#   3]+0.002*[#   4]+0.002*[#   7]+0.002*[#   8]
    |psi|^2 = 0.008

 k =  -0.0933333332  0.1616580755  0.0000000000
==== e(   1) =   -21.25571 eV ==== 
     psi = 0.408*[#   1]+0.408*[#   5]+0.042*[#   3]+0.042*[#   4]+0.042*[#   7]
          +0.042*[#   8]
    |psi|^2 = 0.982
==== e(   2) =    -9.23372 eV ==== 
     psi = 0.481*[#   2]+0.481*[#   6]
    |psi|^2 = 0.962
==== e(   3) =    -7.43887 eV ==== 
     psi = 0.226*[#   3]+0.226*[#   4]+0.226*[#   7]+0.226*[#   8]+0.047*[#   1]
          +0.047*[#   5]
    |psi|^2 = 0.997
==== e(   4) =    -6.65999 eV ==== 
     psi = 0.245*[#   3]+0.245*[#   4]+0.245*[#   7]+0.245*[#   8]+0.008*[#   1]
          +0.008*[#   5]
    |psi|^2 = 0.994
==== e(   5) =     1.66684 eV ==== 
     psi = 0.009*[#   3]+0.009*[#   4]+0.009*[#   7]+0.009*[#   8]
    |psi|^2 = 0.034
==== e(   6) =     2.31769 eV ==== 
     psi = 0.006*[#   2]+0.006*[#   6]
    |psi|^2 = 0.011
==== e(   7) =     2.43691 eV ==== 
     psi = 0.001*[#   3]+0.001*[#   4]+0.001*[#   7]+0.001*[#   8]
    |psi|^2 = 0.004
==== e(   8) =     3.45195 eV ==== 
     psi = 0.005*[#   2]+0.005*[#   6]
    |psi|^2 = 0.010
==== e(   9) =     3.87466 eV ==== 
     psi = 0.001*[#   3]+0.001*[#   4]+0.001*[#   7]+0.001*[#   8]
    |psi|^2 = 0.005
==== e(  10) =     5.56033 eV ==== 
     psi = 0.004*[#   2]+0.004*[#   6]
    |psi|^2 = 0.007
==== e(  11) =     6.17743 eV ==== 
     psi = 0.021*[#   3]+0.021*[#   4]+0.021*[#   7]+0.021*[#   8]+0.015*[#   1]
          +0.015*[#   5]
    |psi|^2 = 0.112
==== e(  12) =     6.47957 eV ==== 
     psi = 0.165*[#   3]+0.165*[#   4]+0.165*[#   7]+0.165*[#   8]+0.060*[#   1]
          +0.060*[#   5]
    |psi|^2 = 0.778
==== e(  13) =     7.11007 eV ==== 
     psi = 0.487*[#   2]+0.487*[#   6]
    |psi|^2 = 0.975
==== e(  14) =     7.78515 eV ==== 
     psi = 0.195*[#   3]+0.195*[#   4]+0.195*[#   7]+0.195*[#   8]+0.083*[#   1]
          +0.083*[#   5]
    |psi|^2 = 0.947
==== e(  15) =     8.53866 eV ==== 
     psi = 0.002*[#   2]+0.002*[#   6]
    |psi|^2 = 0.004
==== e(  16) =     9.36644 eV ==== 
     psi = 0.002*[#   3]+0.002*[#   4]+0.002*[#   7]+0.002*[#   8]
    |psi|^2 = 0.008

 k =  -0.0866666666  0.1501110701  0.0000000000
==== e(   1) =   -21.34014 eV ==== 
     psi = 0.417*[#   1]+0.417*[#   5]+0.037*[#   3]+0.037*[#   4]+0.037*[#   7]
          +0.037*[#   8]
    |psi|^2 = 0.983
==== e(   2) =    -9.33383 eV ==== 
     psi = 0.480*[#   2]+0.480*[#   6]
    |psi|^2 = 0.960
==== e(   3) =    -7.20719 eV ==== 
     psi = 0.228*[#   3]+0.228*[#   4]+0.228*[#   7]+0.228*[#   8]+0.042*[#   1]
          +0.042*[#   5]
    |psi|^2 = 0.998
==== e(   4) =    -6.50036 eV ==== 
     psi = 0.246*[#   3]+0.246*[#   4]+0.246*[#   7]+0.246*[#   8]+0.006*[#   1]
          +0.006*[#   5]
    |psi|^2 = 0.995
==== e(   5) =     1.55105 eV ==== 
     psi = 0.008*[#   3]+0.008*[#   4]+0.008*[#   7]+0.008*[#   8]
    |psi|^2 = 0.033
==== e(   6) =     2.20051 eV ==== 
     psi = 0.006*[#   2]+0.006*[#   6]
    |psi|^2 = 0.012
==== e(   7) =     2.31886 eV ==== 
     psi = 0.001*[#   3]+0.001*[#   4]+0.001*[#   7]+0.001*[#   8]
    |psi|^2 = 0.004
==== e(   8) =     3.33533 eV ==== 
     psi = 0.005*[#   2]+0.005*[#   6]
    |psi|^2 = 0.011
==== e(   9) =     3.75764 eV ==== 
     psi = 0.001*[#   3]+0.001*[#   4]+0.001*[#   7]+0.001*[#   8]
    |psi|^2 = 0.005
==== e(  10) =     5.44488 eV ==== 
     psi = 0.004*[#   2]+0.004*[#   6]
    |psi|^2 = 0.008
==== e(  11) =     6.07114 eV ==== 
     psi = 0.015*[#   3]+0.015*[#   4]+0.015*[#   7]+0.015*[#   8]+0.011*[#   1]
          +0.011*[#   5]
    |psi|^2 = 0.079
==== e(  12) =     6.39864 eV ==== 
     psi = 0.175*[#   3]+0.175*[#   4]+0.175*[#   7]+0.175*[#   8]+0.058*[#   1]
          +0.058*[#   5]
    |psi|^2 = 0.816
==== e(  13) =     7.35172 eV ==== 
     psi = 0.488*[#   2]+0.488*[#   6]
    |psi|^2 = 0.977
==== e(  14) =     7.61641 eV ==== 
     psi = 0.204*[#   3]+0.204*[#   4]+0.204*[#   7]+0.204*[#   8]+0.066*[#   1]
          +0.066*[#   5]
    |psi|^2 = 0.946
==== e(  15) =     8.42582 eV ==== 
     psi = 0.002*[#   2]+0.002*[#   6]
    |psi|^2 = 0.004
==== e(  16) =     9.25033 eV ==== 
     psi = 0.002*[#   3]+0.002*[#   4]+0.002*[#   7]+0.002*[#   8]
    |psi|^2 = 0.008

 k =  -0.0799999999  0.1385640647  0.0000000000
==== e(   1) =   -21.41838 eV ==== 
     psi = 0.425*[#   1]+0.425*[#   5]+0.033*[#   3]+0.033*[#   4]+0.033*[#   7]
          +0.033*[#   8]
    |psi|^2 = 0.983
==== e(   2) =    -9.42674 eV ==== 
     psi = 0.479*[#   2]+0.479*[#   6]
    |psi|^2 = 0.958
==== e(   3) =    -6.98207 eV ==== 
     psi = 0.231*[#   3]+0.231*[#   4]+0.231*[#   7]+0.231*[#   8]+0.037*[#   1]
          +0.037*[#   5]
    |psi|^2 = 0.998
==== e(   4) =    -6.34917 eV ==== 
     psi = 0.246*[#   3]+0.246*[#   4]+0.246*[#   7]+0.246*[#   8]+0.005*[#   1]
          +0.005*[#   5]
    |psi|^2 = 0.995
==== e(   5) =     1.44382 eV ==== 
     psi = 0.008*[#   3]+0.008*[#   4]+0.008*[#   7]+0.008*[#   8]
    |psi|^2 = 0.031
==== e(   6) =     2.09198 eV ==== 
     psi = 0.006*[#   2]+0.006*[#   6]
    |psi|^2 = 0.012
==== e(   7) =     2.20956 eV ==== 

    |psi|^2 = 0.004
==== e(   8) =     3.22730 eV ==== 
     psi = 0.006*[#   2]+0.006*[#   6]
    |psi|^2 = 0.011
==== e(   9) =     3.64930 eV ==== 
     psi = 0.001*[#   3]+0.001*[#   4]+0.001*[#   7]+0.001*[#   8]
    |psi|^2 = 0.005
==== e(  10) =     5.33789 eV ==== 
     psi = 0.004*[#   2]+0.004*[#   6]
    |psi|^2 = 0.008
==== e(  11) =     5.97138 eV ==== 
     psi = 0.010*[#   3]+0.010*[#   4]+0.010*[#   7]+0.010*[#   8]+0.008*[#   1]
          +0.008*[#   5]
    |psi|^2 = 0.056
==== e(  12) =     6.32643 eV ==== 
     psi = 0.184*[#   3]+0.184*[#   4]+0.184*[#   7]+0.184*[#   8]+0.054*[#   1]
          +0.054*[#   5]
    |psi|^2 = 0.845
==== e(  13) =     7.44170 eV ==== 
     psi = 0.211*[#   3]+0.211*[#   4]+0.211*[#   7]+0.211*[#   8]+0.051*[#   1]
          +0.051*[#   5]
    |psi|^2 = 0.946
==== e(  14) =     7.58195 eV ==== 
     psi = 0.489*[#   2]+0.489*[#   6]
    |psi|^2 = 0.978
==== e(  15) =     8.32111 eV ==== 
     psi = 0.002*[#   2]+0.002*[#   6]
    |psi|^2 = 0.005
==== e(  16) =     9.14268 eV ==== 
     psi = 0.002*[#   3]+0.002*[#   4]+0.002*[#   7]+0.002*[#   8]
    |psi|^2 = 0.007

 k =  -0.0733333333  0.1270170593  0.0000000000
==== e(   1) =   -21.49043 eV ==== 
     psi = 0.434*[#   1]+0.434*[#   5]+0.029*[#   3]+0.029*[#   4]+0.029*[#   7]
          +0.029*[#   8]
    |psi|^2 = 0.983
==== e(   2) =    -9.51240 eV ==== 
     psi = 0.478*[#   2]+0.478*[#   6]
    |psi|^2 = 0.956
==== e(   3) =    -6.76493 eV ==== 
     psi = 0.233*[#   3]+0.233*[#   4]+0.233*[#   7]+0.233*[#   8]+0.033*[#   1]
          +0.033*[#   5]
    |psi|^2 = 0.998
==== e(   4) =    -6.20712 eV ==== 
     psi = 0.247*[#   3]+0.247*[#   4]+0.247*[#   7]+0.247*[#   8]+0.004*[#   1]
          +0.004*[#   5]
    |psi|^2 = 0.996
==== e(   5) =     1.34516 eV ==== 
     psi = 0.007*[#   3]+0.007*[#   4]+0.007*[#   7]+0.007*[#   8]
    |psi|^2 = 0.029
==== e(   6) =     1.99209 eV ==== 
     psi = 0.006*[#   2]+0.006*[#   6]
    |psi|^2 = 0.013
==== e(   7) =     2.10901 eV ==== 

    |psi|^2 = 0.004
==== e(   8) =     3.12788 eV ==== 
     psi = 0.006*[#   2]+0.006*[#   6]
    |psi|^2 = 0.012
==== e(   9) =     3.54963 eV ==== 

    |psi|^2 = 0.004
==== e(  10) =     5.23939 eV ==== 
     psi = 0.004*[#   2]+0.004*[#   6]
    |psi|^2 = 0.008
==== e(  11) =     5.87865 eV ==== 
     psi = 0.007*[#   3]+0.007*[#   4]+0.007*[#   7]+0.007*[#   8]+0.006*[#   1]
          +0.006*[#   5]
    |psi|^2 = 0.040
==== e(  12) =     6.26227 eV ==== 
     psi = 0.192*[#   3]+0.192*[#   4]+0.192*[#   7]+0.192*[#   8]+0.049*[#   1]
          +0.049*[#   5]
    |psi|^2 = 0.867
==== e(  13) =     7.26324 eV ==== 
     psi = 0.218*[#   3]+0.218*[#   4]+0.218*[#   7]+0.218*[#   8]+0.037*[#   1]
          +0.037*[#   5]
    |psi|^2 = 0.946
==== e(  14) =     7.79953 eV ==== 
     psi = 0.490*[#   2]+0.490*[#   6]
    |psi|^2 = 0.980
==== e(  15) =     8.22460 eV ==== 
     psi = 0.002*[#   2]+0.002*[#   6]
    |psi|^2 = 0.005
==== e(  16) =     9.04351 eV ==== 
     psi = 0.002*[#   3]+0.002*[#   4]+0.002*[#   7]+0.002*[#   8]
    |psi|^2 = 0.007

 k =  -0.0666666666  0.1154700540  0.0000000000
==== e(   1) =   -21.55627 eV ==== 
     psi = 0.442*[#   1]+0.442*[#   5]+0.025*[#   3]+0.025*[#   4]+0.025*[#   7]
          +0.025*[#   8]
    |psi|^2 = 0.983
==== e(   2) =    -9.59076 eV ==== 
     psi = 0.477*[#   2]+0.477*[#   6]
    |psi|^2 = 0.955
==== e(   3) =    -6.55735 eV ==== 
     psi = 0.235*[#   3]+0.235*[#   4]+0.235*[#   7]+0.235*[#   8]+0.028*[#   1]
          +0.028*[#   5]
    |psi|^2 = 0.998
==== e(   4) =    -6.07486 eV ==== 
     psi = 0.248*[#   3]+0.248*[#   4]+0.248*[#   7]+0.248*[#   8]+0.003*[#   1]
          +0.003*[#   5]
    |psi|^2 = 0.996
==== e(   5) =     1.25509 eV ==== 
[...]
          +0.029*[#   5]
    |psi|^2 = 0.985
==== e(   4) =    -3.11747 eV ==== 
     psi = 0.498*[#   2]+0.498*[#   6]
    |psi|^2 = 0.996
==== e(   5) =    -1.62604 eV ==== 
     psi = 0.494*[#   2]+0.494*[#   6]
    |psi|^2 = 0.989
==== e(   6) =     8.41170 eV ==== 
     psi = 0.001*[#   2]+0.001*[#   6]
    |psi|^2 = 0.002
==== e(   7) =    10.09540 eV ==== 
     psi = 0.042*[#   1]+0.042*[#   5]+0.013*[#   3]+0.013*[#   4]+0.013*[#   7]
          +0.013*[#   8]
    |psi|^2 = 0.135
==== e(   8) =    10.14962 eV ==== 
     psi = 0.154*[#   1]+0.154*[#   5]+0.046*[#   3]+0.046*[#   4]+0.046*[#   7]
          +0.046*[#   8]
    |psi|^2 = 0.490
==== e(   9) =    10.56251 eV ==== 
     psi = 0.048*[#   1]+0.048*[#   5]+0.024*[#   3]+0.024*[#   4]+0.024*[#   7]
          +0.024*[#   8]
    |psi|^2 = 0.192
==== e(  10) =    11.43023 eV ==== 

    |psi|^2 = 0.000
==== e(  11) =    11.56708 eV ==== 
     psi = 0.005*[#   1]+0.005*[#   5]+0.002*[#   3]+0.002*[#   4]+0.002*[#   7]
          +0.002*[#   8]
    |psi|^2 = 0.017
==== e(  12) =    11.59364 eV ==== 

    |psi|^2 = 0.001
==== e(  13) =    11.78186 eV ==== 

    |psi|^2 = 0.000
==== e(  14) =    12.55742 eV ==== 

    |psi|^2 = 0.000
==== e(  15) =    12.62188 eV ==== 
     psi = 0.040*[#   1]+0.040*[#   5]+0.020*[#   3]+0.020*[#   4]+0.020*[#   7]
          +0.020*[#   8]
    |psi|^2 = 0.160
==== e(  16) =    12.82578 eV ==== 
     psi = 0.002*[#   1]+0.002*[#   5]
    |psi|^2 = 0.008

 k =  -0.2799999997  0.5773502697  0.0000000000
==== e(   1) =   -15.45221 eV ==== 
     psi = 0.254*[#   1]+0.254*[#   5]+0.121*[#   3]+0.121*[#   4]+0.121*[#   7]
          +0.121*[#   8]
    |psi|^2 = 0.993
==== e(   2) =   -14.73359 eV ==== 
     psi = 0.187*[#   1]+0.187*[#   5]+0.154*[#   3]+0.154*[#   4]+0.154*[#   7]
          +0.154*[#   8]
    |psi|^2 = 0.990
==== e(   3) =   -12.55135 eV ==== 
     psi = 0.233*[#   3]+0.233*[#   4]+0.233*[#   7]+0.233*[#   8]+0.025*[#   1]
          +0.025*[#   5]
    |psi|^2 = 0.984
==== e(   4) =    -3.03965 eV ==== 
     psi = 0.498*[#   2]+0.498*[#   6]
    |psi|^2 = 0.996
==== e(   5) =    -1.69561 eV ==== 
     psi = 0.495*[#   2]+0.495*[#   6]
    |psi|^2 = 0.990
==== e(   6) =     8.37898 eV ==== 

    |psi|^2 = 0.002
==== e(   7) =    10.14816 eV ==== 
     psi = 0.046*[#   1]+0.046*[#   5]+0.014*[#   3]+0.014*[#   4]+0.014*[#   7]
          +0.014*[#   8]
    |psi|^2 = 0.149
==== e(   8) =    10.23549 eV ==== 
     psi = 0.137*[#   1]+0.137*[#   5]+0.041*[#   3]+0.041*[#   4]+0.041*[#   7]
          +0.041*[#   8]
    |psi|^2 = 0.436
==== e(   9) =    10.66830 eV ==== 
     psi = 0.056*[#   1]+0.056*[#   5]+0.026*[#   3]+0.026*[#   4]+0.026*[#   7]
          +0.026*[#   8]
    |psi|^2 = 0.218
==== e(  10) =    11.52026 eV ==== 

    |psi|^2 = 0.000
==== e(  11) =    11.65431 eV ==== 
     psi = 0.005*[#   1]+0.005*[#   5]+0.002*[#   3]+0.002*[#   4]+0.002*[#   7]
          +0.002*[#   8]
    |psi|^2 = 0.018
==== e(  12) =    11.68258 eV ==== 

    |psi|^2 = 0.001
==== e(  13) =    11.86357 eV ==== 

    |psi|^2 = 0.000
==== e(  14) =    12.64742 eV ==== 

    |psi|^2 = 0.000
==== e(  15) =    12.67920 eV ==== 
     psi = 0.045*[#   1]+0.045*[#   5]+0.022*[#   3]+0.022*[#   4]+0.022*[#   7]
          +0.022*[#   8]
    |psi|^2 = 0.176
==== e(  16) =    12.89983 eV ==== 
     psi = 0.003*[#   1]+0.003*[#   5]+0.001*[#   3]+0.001*[#   4]+0.001*[#   7]
          +0.001*[#   8]
    |psi|^2 = 0.010

 k =  -0.2866666664  0.5773502697  0.0000000000
==== e(   1) =   -15.39526 eV ==== 
     psi = 0.252*[#   1]+0.252*[#   5]+0.123*[#   3]+0.123*[#   4]+0.123*[#   7]
          +0.123*[#   8]
    |psi|^2 = 0.993
==== e(   2) =   -14.73058 eV ==== 
     psi = 0.195*[#   1]+0.195*[#   5]+0.150*[#   3]+0.150*[#   4]+0.150*[#   7]
          +0.150*[#   8]
    |psi|^2 = 0.991
==== e(   3) =   -12.63366 eV ==== 
     psi = 0.236*[#   3]+0.236*[#   4]+0.236*[#   7]+0.236*[#   8]+0.021*[#   1]
          +0.021*[#   5]
    |psi|^2 = 0.984
==== e(   4) =    -2.96004 eV ==== 
     psi = 0.498*[#   2]+0.498*[#   6]
    |psi|^2 = 0.995
==== e(   5) =    -1.76813 eV ==== 
     psi = 0.495*[#   2]+0.495*[#   6]
    |psi|^2 = 0.990
==== e(   6) =     8.35010 eV ==== 

    |psi|^2 = 0.001
==== e(   7) =    10.19985 eV ==== 
     psi = 0.051*[#   1]+0.051*[#   5]+0.016*[#   3]+0.016*[#   4]+0.016*[#   7]
          +0.016*[#   8]
    |psi|^2 = 0.165
==== e(   8) =    10.30964 eV ==== 
     psi = 0.125*[#   1]+0.125*[#   5]+0.037*[#   3]+0.037*[#   4]+0.037*[#   7]
          +0.037*[#   8]
    |psi|^2 = 0.398
==== e(   9) =    10.77011 eV ==== 
     psi = 0.059*[#   1]+0.059*[#   5]+0.027*[#   3]+0.027*[#   4]+0.027*[#   7]
          +0.027*[#   8]
    |psi|^2 = 0.225
==== e(  10) =    11.61245 eV ==== 

    |psi|^2 = 0.000
==== e(  11) =    11.74337 eV ==== 
     psi = 0.006*[#   1]+0.006*[#   5]+0.002*[#   3]+0.002*[#   4]+0.002*[#   7]
          +0.002*[#   8]
    |psi|^2 = 0.021
==== e(  12) =    11.77340 eV ==== 

    |psi|^2 = 0.001
==== e(  13) =    11.94690 eV ==== 

    |psi|^2 = 0.000
==== e(  14) =    12.73561 eV ==== 
     psi = 0.049*[#   1]+0.049*[#   5]+0.024*[#   3]+0.024*[#   4]+0.024*[#   7]
          +0.024*[#   8]
    |psi|^2 = 0.193
==== e(  15) =    12.73958 eV ==== 

    |psi|^2 = 0.000
==== e(  16) =    12.97191 eV ==== 
     psi = 0.004*[#   1]+0.004*[#   5]+0.002*[#   3]+0.002*[#   4]+0.002*[#   7]
          +0.002*[#   8]
    |psi|^2 = 0.015

 k =  -0.2933333330  0.5773502697  0.0000000000
==== e(   1) =   -15.33699 eV ==== 
     psi = 0.249*[#   1]+0.249*[#   5]+0.124*[#   3]+0.124*[#   4]+0.124*[#   7]
          +0.124*[#   8]
    |psi|^2 = 0.993
==== e(   2) =   -14.73505 eV ==== 
     psi = 0.202*[#   1]+0.202*[#   5]+0.147*[#   3]+0.147*[#   4]+0.147*[#   7]
          +0.147*[#   8]
    |psi|^2 = 0.992
==== e(   3) =   -12.70700 eV ==== 
     psi = 0.238*[#   3]+0.238*[#   4]+0.238*[#   7]+0.238*[#   8]+0.016*[#   1]
          +0.016*[#   5]
    |psi|^2 = 0.983
==== e(   4) =    -2.87867 eV ==== 
     psi = 0.498*[#   2]+0.498*[#   6]
    |psi|^2 = 0.995
==== e(   5) =    -1.84357 eV ==== 
     psi = 0.496*[#   2]+0.496*[#   6]
    |psi|^2 = 0.991
==== e(   6) =     8.32513 eV ==== 

    |psi|^2 = 0.001
==== e(   7) =    10.25015 eV ==== 
     psi = 0.056*[#   1]+0.056*[#   5]+0.017*[#   3]+0.017*[#   4]+0.017*[#   7]
          +0.017*[#   8]
    |psi|^2 = 0.182
==== e(   8) =    10.37377 eV ==== 
     psi = 0.117*[#   1]+0.117*[#   5]+0.035*[#   3]+0.035*[#   4]+0.035*[#   7]
          +0.035*[#   8]
    |psi|^2 = 0.373
==== e(   9) =    10.86297 eV ==== 
     psi = 0.056*[#   1]+0.056*[#   5]+0.025*[#   3]+0.025*[#   4]+0.025*[#   7]
          +0.025*[#   8]
    |psi|^2 = 0.213
==== e(  10) =    11.70679 eV ==== 

    |psi|^2 = 0.000
==== e(  11) =    11.83418 eV ==== 
     psi = 0.006*[#   1]+0.006*[#   5]+0.003*[#   3]+0.003*[#   4]+0.003*[#   7]
          +0.003*[#   8]
    |psi|^2 = 0.023
==== e(  12) =    11.86596 eV ==== 

    |psi|^2 = 0.001
==== e(  13) =    12.03137 eV ==== 

    |psi|^2 = 0.000
==== e(  14) =    12.79109 eV ==== 
     psi = 0.053*[#   1]+0.053*[#   5]+0.026*[#   3]+0.026*[#   4]+0.026*[#   7]
          +0.026*[#   8]
    |psi|^2 = 0.210
==== e(  15) =    12.83389 eV ==== 

    |psi|^2 = 0.000
==== e(  16) =    13.03898 eV ==== 
     psi = 0.007*[#   1]+0.007*[#   5]+0.003*[#   3]+0.003*[#   4]+0.003*[#   7]
          +0.003*[#   8]
    |psi|^2 = 0.027

 k =  -0.2999999997  0.5773502697  0.0000000000
==== e(   1) =   -15.27742 eV ==== 
     psi = 0.247*[#   1]+0.247*[#   5]+0.125*[#   3]+0.125*[#   4]+0.125*[#   7]
          +0.125*[#   8]
    |psi|^2 = 0.993
==== e(   2) =   -14.74801 eV ==== 
     psi = 0.209*[#   1]+0.209*[#   5]+0.144*[#   3]+0.144*[#   4]+0.144*[#   7]
          +0.144*[#   8]
    |psi|^2 = 0.992
==== e(   3) =   -12.77028 eV ==== 
     psi = 0.240*[#   3]+0.240*[#   4]+0.240*[#   7]+0.240*[#   8]+0.012*[#   1]
          +0.012*[#   5]
    |psi|^2 = 0.982
==== e(   4) =    -2.79553 eV ==== 
     psi = 0.498*[#   2]+0.498*[#   6]
    |psi|^2 = 0.995
==== e(   5) =    -1.92187 eV ==== 
     psi = 0.496*[#   2]+0.496*[#   6]
    |psi|^2 = 0.992
==== e(   6) =     8.30414 eV ==== 

    |psi|^2 = 0.001
==== e(   7) =    10.29877 eV ==== 
     psi = 0.062*[#   1]+0.062*[#   5]+0.019*[#   3]+0.019*[#   4]+0.019*[#   7]
          +0.019*[#   8]
    |psi|^2 = 0.200
==== e(   8) =    10.42849 eV ==== 
     psi = 0.112*[#   1]+0.112*[#   5]+0.034*[#   3]+0.034*[#   4]+0.034*[#   7]
          +0.034*[#   8]
    |psi|^2 = 0.359
==== e(   9) =    10.94272 eV ==== 
     psi = 0.048*[#   1]+0.048*[#   5]+0.022*[#   3]+0.022*[#   4]+0.022*[#   7]
          +0.022*[#   8]
    |psi|^2 = 0.185
==== e(  10) =    11.80327 eV ==== 

    |psi|^2 = 0.000
==== e(  11) =    11.92670 eV ==== 
     psi = 0.007*[#   1]+0.007*[#   5]+0.003*[#   3]+0.003*[#   4]+0.003*[#   7]
          +0.003*[#   8]
    |psi|^2 = 0.026
==== e(  12) =    11.96010 eV ==== 

    |psi|^2 = 0.001
==== e(  13) =    12.11623 eV ==== 

    |psi|^2 = 0.000
==== e(  14) =    12.84573 eV ==== 
     psi = 0.058*[#   1]+0.058*[#   5]+0.028*[#   3]+0.028*[#   4]+0.028*[#   7]
          +0.028*[#   8]
    |psi|^2 = 0.226
==== e(  15) =    12.93035 eV ==== 

    |psi|^2 = 0.000
==== e(  16) =    13.09302 eV ==== 
     psi = 0.015*[#   1]+0.015*[#   5]+0.006*[#   3]+0.006*[#   4]+0.006*[#   7]
          +0.006*[#   8]
    |psi|^2 = 0.055

 k =  -0.3066666664  0.5773502697  0.0000000000
==== e(   1) =   -15.21652 eV ==== 
     psi = 0.244*[#   1]+0.244*[#   5]+0.126*[#   3]+0.126*[#   4]+0.126*[#   7]
          +0.126*[#   8]
    |psi|^2 = 0.993
==== e(   2) =   -14.77032 eV ==== 
     psi = 0.216*[#   1]+0.216*[#   5]+0.140*[#   3]+0.140*[#   4]+0.140*[#   7]
          +0.140*[#   8]
    |psi|^2 = 0.993
==== e(   3) =   -12.82261 eV ==== 
     psi = 0.242*[#   3]+0.242*[#   4]+0.242*[#   7]+0.242*[#   8]+0.008*[#   1]
          +0.008*[#   5]
    |psi|^2 = 0.982
==== e(   4) =    -2.71064 eV ==== 
     psi = 0.497*[#   2]+0.497*[#   6]
    |psi|^2 = 0.995
==== e(   5) =    -2.00297 eV ==== 
     psi = 0.496*[#   2]+0.496*[#   6]
    |psi|^2 = 0.992
==== e(   6) =     8.28712 eV ==== 

    |psi|^2 = 0.000
==== e(   7) =    10.34537 eV ==== 
     psi = 0.068*[#   1]+0.068*[#   5]+0.021*[#   3]+0.021*[#   4]+0.021*[#   7]
          +0.021*[#   8]
    |psi|^2 = 0.221
==== e(   8) =    10.47329 eV ==== 
     psi = 0.109*[#   1]+0.109*[#   5]+0.034*[#   3]+0.034*[#   4]+0.034*[#   7]
          +0.034*[#   8]
    |psi|^2 = 0.354
==== e(   9) =    11.00628 eV ==== 
     psi = 0.037*[#   1]+0.037*[#   5]+0.018*[#   3]+0.018*[#   4]+0.018*[#   7]
          +0.018*[#   8]
    |psi|^2 = 0.145
==== e(  10) =    11.90191 eV ==== 

    |psi|^2 = 0.000
==== e(  11) =    12.02083 eV ==== 
     psi = 0.008*[#   1]+0.008*[#   5]+0.003*[#   3]+0.003*[#   4]+0.003*[#   7]
          +0.003*[#   8]
    |psi|^2 = 0.029
==== e(  12) =    12.05560 eV ==== 

    |psi|^2 = 0.002
==== e(  13) =    12.20004 eV ==== 

    |psi|^2 = 0.000
==== e(  14) =    12.89978 eV ==== 
     psi = 0.061*[#   1]+0.061*[#   5]+0.029*[#   3]+0.029*[#   4]+0.029*[#   7]
          +0.029*[#   8]
    |psi|^2 = 0.240
==== e(  15) =    13.02896 eV ==== 

    |psi|^2 = 0.000
==== e(  16) =    13.10153 eV ==== 
     psi = 0.032*[#   1]+0.032*[#   5]+0.014*[#   3]+0.014*[#   4]+0.014*[#   7]
          +0.014*[#   8]
    |psi|^2 = 0.120

 k =  -0.3133333330  0.5773502697  0.0000000000
==== e(   1) =   -15.15432 eV ==== 
     psi = 0.241*[#   1]+0.241*[#   5]+0.128*[#   3]+0.128*[#   4]+0.128*[#   7]
          +0.128*[#   8]
    |psi|^2 = 0.994
==== e(   2) =   -14.80260 eV ==== 
     psi = 0.222*[#   1]+0.222*[#   5]+0.137*[#   3]+0.137*[#   4]+0.137*[#   7]
          +0.137*[#   8]
    |psi|^2 = 0.993
==== e(   3) =   -12.86330 eV ==== 
     psi = 0.243*[#   3]+0.243*[#   4]+0.243*[#   7]+0.243*[#   8]+0.004*[#   1]
          +0.004*[#   5]
    |psi|^2 = 0.981
==== e(   4) =    -2.62401 eV ==== 
     psi = 0.497*[#   2]+0.497*[#   6]
    |psi|^2 = 0.995
==== e(   5) =    -2.08680 eV ==== 
     psi = 0.496*[#   2]+0.496*[#   6]
    |psi|^2 = 0.993
==== e(   6) =     8.27406 eV ==== 

    |psi|^2 = 0.000
==== e(   7) =    10.38960 eV ==== 
     psi = 0.074*[#   1]+0.074*[#   5]+0.024*[#   3]+0.024*[#   4]+0.024*[#   7]
          +0.024*[#   8]
    |psi|^2 = 0.243
==== e(   8) =    10.50650 eV ==== 
     psi = 0.108*[#   1]+0.108*[#   5]+0.034*[#   3]+0.034*[#   4]+0.034*[#   7]
          +0.034*[#   8]
    |psi|^2 = 0.352
==== e(   9) =    11.05202 eV ==== 
     psi = 0.024*[#   1]+0.024*[#   5]+0.013*[#   3]+0.013*[#   4]+0.013*[#   7]
          +0.013*[#   8]
    |psi|^2 = 0.099
==== e(  10) =    12.00269 eV ==== 

    |psi|^2 = 0.000
==== e(  11) =    12.11650 eV ==== 
     psi = 0.009*[#   1]+0.009*[#   5]+0.004*[#   3]+0.004*[#   4]+0.004*[#   7]
          +0.004*[#   8]
    |psi|^2 = 0.033
==== e(  12) =    12.15225 eV ==== 

    |psi|^2 = 0.004
==== e(  13) =    12.27967 eV ==== 

    |psi|^2 = 0.000
==== e(  14) =    12.95360 eV ==== 
     psi = 0.065*[#   1]+0.065*[#   5]+0.031*[#   3]+0.031*[#   4]+0.031*[#   7]
          +0.031*[#   8]
    |psi|^2 = 0.252
==== e(  15) =    12.99199 eV ==== 
     psi = 0.030*[#   1]+0.030*[#   5]+0.014*[#   3]+0.014*[#   4]+0.014*[#   7]
          +0.014*[#   8]
    |psi|^2 = 0.115
==== e(  16) =    13.02540 eV ==== 

    |psi|^2 = 0.000

 k =  -0.3199999997  0.5773502697  0.0000000000
==== e(   1) =   -15.09081 eV ==== 
     psi = 0.239*[#   1]+0.239*[#   5]+0.129*[#   3]+0.129*[#   4]+0.129*[#   7]
          +0.129*[#   8]
    |psi|^2 = 0.994
==== e(   2) =   -14.84509 eV ==== 
     psi = 0.227*[#   1]+0.227*[#   5]+0.135*[#   3]+0.135*[#   4]+0.135*[#   7]
          +0.135*[#   8]
    |psi|^2 = 0.993
==== e(   3) =   -12.89205 eV ==== 
     psi = 0.244*[#   3]+0.244*[#   4]+0.244*[#   7]+0.244*[#   8]+0.002*[#   1]
          +0.002*[#   5]
    |psi|^2 = 0.981
==== e(   4) =    -2.53565 eV ==== 
     psi = 0.497*[#   2]+0.497*[#   6]
    |psi|^2 = 0.994
==== e(   5) =    -2.17327 eV ==== 
     psi = 0.497*[#   2]+0.497*[#   6]
    |psi|^2 = 0.993
==== e(   6) =     8.26488 eV ==== 

    |psi|^2 = 0.000
==== e(   7) =    10.43115 eV ==== 
     psi = 0.081*[#   1]+0.081*[#   5]+0.026*[#   3]+0.026*[#   4]+0.026*[#   7]
          +0.026*[#   8]
    |psi|^2 = 0.267
==== e(   8) =    10.52537 eV ==== 
     psi = 0.107*[#   1]+0.107*[#   5]+0.034*[#   3]+0.034*[#   4]+0.034*[#   7]
          +0.034*[#   8]
    |psi|^2 = 0.349
==== e(   9) =    11.08032 eV ==== 
     psi = 0.012*[#   1]+0.012*[#   5]+0.008*[#   3]+0.008*[#   4]+0.008*[#   7]
          +0.008*[#   8]
    |psi|^2 = 0.055
==== e(  10) =    12.10561 eV ==== 

    |psi|^2 = 0.000
==== e(  11) =    12.21360 eV ==== 
     psi = 0.010*[#   1]+0.010*[#   5]+0.004*[#   3]+0.004*[#   4]+0.004*[#   7]
          +0.004*[#   8]
    |psi|^2 = 0.037
==== e(  12) =    12.24972 eV ==== 
     psi = 0.002*[#   1]+0.002*[#   5]
    |psi|^2 = 0.007
==== e(  13) =    12.34680 eV ==== 

    |psi|^2 = 0.000
==== e(  14) =    12.81881 eV ==== 
     psi = 0.020*[#   1]+0.020*[#   5]+0.009*[#   3]+0.009*[#   4]+0.009*[#   7]
          +0.009*[#   8]
    |psi|^2 = 0.075
==== e(  15) =    12.89227 eV ==== 

    |psi|^2 = 0.000
==== e(  16) =    13.00770 eV ==== 
     psi = 0.067*[#   1]+0.067*[#   5]+0.032*[#   3]+0.032*[#   4]+0.032*[#   7]
          +0.032*[#   8]
    |psi|^2 = 0.260

 k =  -0.3266666663  0.5773502698  0.0000000000
==== e(   1) =   -15.02600 eV ==== 
     psi = 0.236*[#   1]+0.236*[#   5]+0.130*[#   3]+0.130*[#   4]+0.130*[#   7]
          +0.130*[#   8]
    |psi|^2 = 0.994
==== e(   2) =   -14.89769 eV ==== 
     psi = 0.231*[#   1]+0.231*[#   5]+0.133*[#   3]+0.133*[#   4]+0.133*[#   7]
          +0.133*[#   8]
    |psi|^2 = 0.994
==== e(   3) =   -12.90895 eV ==== 
     psi = 0.245*[#   3]+0.245*[#   4]+0.245*[#   7]+0.245*[#   8]
    |psi|^2 = 0.981
==== e(   4) =    -2.44556 eV ==== 
     psi = 0.497*[#   2]+0.497*[#   6]
    |psi|^2 = 0.994
==== e(   5) =    -2.26229 eV ==== 
     psi = 0.497*[#   2]+0.497*[#   6]
    |psi|^2 = 0.993
==== e(   6) =     8.25949 eV ==== 

    |psi|^2 = 0.000
==== e(   7) =    10.46968 eV ==== 
     psi = 0.089*[#   1]+0.089*[#   5]+0.028*[#   3]+0.028*[#   4]+0.028*[#   7]
          +0.028*[#   8]
    |psi|^2 = 0.292
==== e(   8) =    10.52616 eV ==== 
     psi = 0.104*[#   1]+0.104*[#   5]+0.033*[#   3]+0.033*[#   4]+0.033*[#   7]
          +0.033*[#   8]
    |psi|^2 = 0.340
==== e(   9) =    11.09388 eV ==== 
     psi = 0.004*[#   3]+0.004*[#   4]+0.004*[#   7]+0.004*[#   8]+0.003*[#   1]
          +0.003*[#   5]
    |psi|^2 = 0.023
==== e(  10) =    12.21068 eV ==== 

    |psi|^2 = 0.000
==== e(  11) =    12.31201 eV ==== 
     psi = 0.011*[#   1]+0.011*[#   5]+0.005*[#   3]+0.005*[#   4]+0.005*[#   7]
          +0.005*[#   8]
    |psi|^2 = 0.042
==== e(  12) =    12.34717 eV ==== 
     psi = 0.004*[#   1]+0.004*[#   5]+0.002*[#   3]+0.002*[#   4]+0.002*[#   7]
          +0.002*[#   8]
    |psi|^2 = 0.014
==== e(  13) =    12.37608 eV ==== 

    |psi|^2 = 0.000
==== e(  14) =    12.62988 eV ==== 
     psi = 0.012*[#   1]+0.012*[#   5]+0.005*[#   3]+0.005*[#   4]+0.005*[#   7]
          +0.005*[#   8]
    |psi|^2 = 0.046
==== e(  15) =    12.77396 eV ==== 

    |psi|^2 = 0.000
==== e(  16) =    13.06274 eV ==== 
     psi = 0.068*[#   1]+0.068*[#   5]+0.032*[#   3]+0.032*[#   4]+0.032*[#   7]
          +0.032*[#   8]
    |psi|^2 = 0.265

 k =  -0.3333333330  0.5773502698  0.0000000000
==== e(   1) =   -14.95989 eV ==== 
     psi = 0.234*[#   1]+0.234*[#   5]+0.131*[#   3]+0.131*[#   4]+0.131*[#   7]
          +0.131*[#   8]
    |psi|^2 = 0.994
==== e(   2) =   -14.95989 eV ==== 
     psi = 0.234*[#   1]+0.234*[#   5]+0.131*[#   3]+0.131*[#   4]+0.131*[#   7]
          +0.131*[#   8]
    |psi|^2 = 0.994
==== e(   3) =   -12.91443 eV ==== 
     psi = 0.245*[#   3]+0.245*[#   4]+0.245*[#   7]+0.245*[#   8]
    |psi|^2 = 0.981
==== e(   4) =    -2.35376 eV ==== 
     psi = 0.497*[#   2]+0.497*[#   6]
    |psi|^2 = 0.994
==== e(   5) =    -2.35376 eV ==== 
     psi = 0.497*[#   2]+0.497*[#   6]
    |psi|^2 = 0.994
==== e(   6) =     8.25774 eV ==== 

    |psi|^2 = 0.000
==== e(   7) =    10.50489 eV ==== 
     psi = 0.097*[#   1]+0.097*[#   5]+0.031*[#   3]+0.031*[#   4]+0.031*[#   7]
          +0.031*[#   8]
    |psi|^2 = 0.319
==== e(   8) =    10.50489 eV ==== 
     psi = 0.097*[#   1]+0.097*[#   5]+0.031*[#   3]+0.031*[#   4]+0.031*[#   7]
          +0.031*[#   8]
    |psi|^2 = 0.319
==== e(   9) =    11.09726 eV ==== 
     psi = 0.003*[#   3]+0.003*[#   4]+0.003*[#   7]+0.003*[#   8]
    |psi|^2 = 0.012
==== e(  10) =    12.31789 eV ==== 

    |psi|^2 = 0.000
==== e(  11) =    12.31789 eV ==== 

    |psi|^2 = 0.000
==== e(  12) =    12.41160 eV ==== 
     psi = 0.013*[#   1]+0.013*[#   5]+0.006*[#   3]+0.006*[#   4]+0.006*[#   7]
          +0.006*[#   8]
    |psi|^2 = 0.048
==== e(  13) =    12.41160 eV ==== 
     psi = 0.013*[#   1]+0.013*[#   5]+0.006*[#   3]+0.006*[#   4]+0.006*[#   7]
          +0.006*[#   8]
    |psi|^2 = 0.048
==== e(  14) =    12.46741 eV ==== 

    |psi|^2 = 0.001
==== e(  15) =    12.72990 eV ==== 

    |psi|^2 = 0.000
==== e(  16) =    13.11942 eV ==== 
     psi = 0.069*[#   1]+0.069*[#   5]+0.032*[#   3]+0.032*[#   4]+0.032*[#   7]
          +0.032*[#   8]
    |psi|^2 = 0.266

Lowdin Charges: 

     Atom #   1: total charge =   3.9430, s =  0.9096, 
     Atom #   1: total charge =   3.9430, p =  3.0334, pz=  0.9727, px=  1.0303, py=  1.0303, 
     Atom #   2: total charge =   3.9430, s =  0.9096, 
     Atom #   2: total charge =   3.9430, p =  3.0334, pz=  0.9727, px=  1.0303, py=  1.0303, 
     Spilling Parameter:   0.0143

     PROJWFC      :      1.01s CPU      1.56s WALL


   This run was terminated on:  19:50:59  10Dec2023            

=------------------------------------------------------------------------------=
   JOB DONE.
=------------------------------------------------------------------------------=
