
     Program PWSCF v.7.2 starts on 21Nov2023 at 16:15:28 

     This program is part of the open-source Quantum ESPRESSO suite
     for quantum simulation of materials; please cite
         "P. Giannozzi et al., J. Phys.:Condens. Matter 21 395502 (2009);
         "P. Giannozzi et al., J. Phys.:Condens. Matter 29 465901 (2017);
         "P. Giannozzi et al., J. Chem. Phys. 152 154105 (2020);
          URL http://www.quantum-espresso.org", 
     in publications or presentations arising from this work. More details at
     http://www.quantum-espresso.org/quote

     Parallel version (MPI & OpenMP), running on       2 processor cores
     Number of MPI processes:                 2
     Threads/MPI process:                     1

     MPI processes distributed on     1 nodes
     507329 MiB available memory on the printing compute node when the environment starts
 
     Reading input from graphene.nscf.pwi

     Current dimensions of program PWSCF are:
     Max number of different atomic species (ntypx) = 10
     Max number of k-points (npk) =  40000
     Max angular momentum in pseudopotentials (lmaxx) =  4

     Atomic positions and unit cell read from directory:
     ../SCF/out/graphene.save/
     Atomic positions from file used, from input discarded
 
     file C.pbe-n-kjpaw_psl.1.0.0.UPF: wavefunction(s)  2S 2P renormalized
 
     R & G space division:  proc/nbgrp/npool/nimage =       2
     Subspace diagonalization in iterative solution of the eigenvalue problem:
     a serial algorithm will be used

 
     Parallelization info
     --------------------
     sticks:   dense  smooth     PW     G-vecs:    dense   smooth      PW
     Min         297     150     45                48017    17042    3029
     Max         298     151     46                48026    17065    3036
     Sum         595     301     91                96043    34107    6065
 
     Using Slab Decomposition
 

     Title: 
     graphene                                                                   


     bravais-lattice index     =            4
     lattice parameter (alat)  =       4.6627  a.u.
     unit-cell volume          =     711.6007 (a.u.)^3
     number of atoms/cell      =            2
     number of atomic types    =            1
     number of electrons       =         8.00
     number of Kohn-Sham states=           16
     kinetic-energy cutoff     =      50.0000  Ry
     charge density cutoff     =     400.0000  Ry
     Exchange-correlation= SLA  PW   PBX  PBC
                           (   1   4   3   4   0   0   0)

     GPU acceleration is ACTIVE.


     GPU used by master process:

        Device Number: 0
        Device name: NVIDIA A30
        Compute capability : 80
        Ratio of single to double precision performance  : 2
        Memory Clock Rate (KHz): 1215000
        Memory Bus Width (bits): 3072
        Peak Memory Bandwidth (GB/s): 933.12

     celldm(1)=   4.662710  celldm(2)=   0.000000  celldm(3)=   8.105698
     celldm(4)=   0.000000  celldm(5)=   0.000000  celldm(6)=   0.000000

     crystal axes: (cart. coord. in units of alat)
               a(1) = (   1.000000   0.000000   0.000000 )  
               a(2) = (  -0.500000   0.866025   0.000000 )  
               a(3) = (   0.000000   0.000000   8.105698 )  

     reciprocal axes: (cart. coord. in units 2 pi/alat)
               b(1) = (  1.000000  0.577350 -0.000000 )  
               b(2) = (  0.000000  1.154701  0.000000 )  
               b(3) = (  0.000000 -0.000000  0.123370 )  


     PseudoPot. # 1 for C  read from file:
     /home/caique.campos/Tutorial-espresso-2023/Graphene/pseudos/C.pbe-n-kjpaw_psl.1.0.0.UPF
     MD5 check sum: 5d2aebdfa2cae82b50a7e79e9516da0f
     Pseudo is Projector augmented-wave + core cor, Zval =  4.0
     Generated using "atomic" code by A. Dal Corso  v.5.1
     Shape of augmentation charge: PSQ
     Using radial grid of 1073 points,  4 beta functions with: 
                l(1) =   0
                l(2) =   0
                l(3) =   1
                l(4) =   1
     Q(r) pseudized with 0 coefficients 


     atomic species   valence    mass     pseudopotential
        C              4.00    12.01100     C ( 1.00)

     24 Sym. Ops., with inversion, found (18 have fractional translation)


                                    s                        frac. trans.

      isym =  1     identity                                     

 cryst.   s( 1) = (     1          0          0      )
                  (     0          1          0      )
                  (     0          0          1      )

 cart.    s( 1) = (  1.0000000 -0.0000000  0.0000000 )
                  (  0.0000000  1.0000000  0.0000000 )
                  (  0.0000000  0.0000000  1.0000000 )


      isym =  2     180 deg rotation - cart. axis [0,0,1]        

 cryst.   s( 2) = (    -1          0          0      )    f =( -0.3333333 )
                  (     0         -1          0      )       (  0.3333333 )
                  (     0          0          1      )       (  0.0000000 )

 cart.    s( 2) = ( -1.0000000  0.0000000  0.0000000 )    f =( -0.5000000 )
                  (  0.0000000 -1.0000000  0.0000000 )       (  0.2886751 )
                  (  0.0000000  0.0000000  1.0000000 )       (  0.0000000 )


      isym =  3     180 deg rotation - cart. axis [0,1,0]        

 cryst.   s( 3) = (    -1          0          0      )    f =(  0.0000000 )
                  (     1          1          0      )       (  0.0000000 )
                  (     0          0         -1      )       ( -0.5000000 )

 cart.    s( 3) = ( -1.0000000 -0.0000000  0.0000000 )    f =(  0.0000000 )
                  (  0.0000000  1.0000000  0.0000000 )       (  0.0000000 )
                  (  0.0000000  0.0000000 -1.0000000 )       ( -4.0528492 )


      isym =  4     180 deg rotation - cart. axis [1,0,0]        

 cryst.   s( 4) = (     1          0          0      )    f =( -0.3333333 )
                  (    -1         -1          0      )       (  0.3333333 )
                  (     0          0         -1      )       ( -0.5000000 )

 cart.    s( 4) = (  1.0000000  0.0000000  0.0000000 )    f =( -0.5000000 )
                  (  0.0000000 -1.0000000  0.0000000 )       (  0.2886751 )
                  (  0.0000000  0.0000000 -1.0000000 )       ( -4.0528492 )


      isym =  5      60 deg rotation - cryst. axis [0,0,1]       

 cryst.   s( 5) = (     1          1          0      )    f =( -0.3333333 )
                  (    -1          0          0      )       (  0.3333333 )
                  (     0          0          1      )       (  0.0000000 )

 cart.    s( 5) = (  0.5000000 -0.8660254  0.0000000 )    f =( -0.5000000 )
                  (  0.8660254  0.5000000  0.0000000 )       (  0.2886751 )
                  (  0.0000000  0.0000000  1.0000000 )       (  0.0000000 )


      isym =  6      60 deg rotation - cryst. axis [0,0,-1]      

 cryst.   s( 6) = (     0         -1          0      )    f =( -0.3333333 )
                  (     1          1          0      )       (  0.3333333 )
                  (     0          0          1      )       (  0.0000000 )

 cart.    s( 6) = (  0.5000000  0.8660254  0.0000000 )    f =( -0.5000000 )
                  ( -0.8660254  0.5000000  0.0000000 )       (  0.2886751 )
                  (  0.0000000  0.0000000  1.0000000 )       (  0.0000000 )


      isym =  7     120 deg rotation - cryst. axis [0,0,1]       

 cryst.   s( 7) = (     0          1          0      )
                  (    -1         -1          0      )
                  (     0          0          1      )

 cart.    s( 7) = ( -0.5000000 -0.8660254  0.0000000 )
                  (  0.8660254 -0.5000000  0.0000000 )
                  (  0.0000000  0.0000000  1.0000000 )


      isym =  8     120 deg rotation - cryst. axis [0,0,-1]      

 cryst.   s( 8) = (    -1         -1          0      )
                  (     1          0          0      )
                  (     0          0          1      )

 cart.    s( 8) = ( -0.5000000  0.8660254  0.0000000 )
                  ( -0.8660254 -0.5000000  0.0000000 )
                  (  0.0000000  0.0000000  1.0000000 )


      isym =  9     180 deg rotation - cryst. axis [1,-1,0]      

 cryst.   s( 9) = (     0         -1          0      )    f =(  0.0000000 )
                  (    -1          0          0      )       (  0.0000000 )
                  (     0          0         -1      )       ( -0.5000000 )

 cart.    s( 9) = (  0.5000000 -0.8660254  0.0000000 )    f =(  0.0000000 )
                  ( -0.8660254 -0.5000000  0.0000000 )       (  0.0000000 )
                  (  0.0000000  0.0000000 -1.0000000 )       ( -4.0528492 )


      isym = 10     180 deg rotation - cryst. axis [2,1,0]       

 cryst.   s(10) = (     1          1          0      )    f =(  0.0000000 )
                  (     0         -1          0      )       (  0.0000000 )
                  (     0          0         -1      )       ( -0.5000000 )

 cart.    s(10) = (  0.5000000  0.8660254  0.0000000 )    f =(  0.0000000 )
                  (  0.8660254 -0.5000000  0.0000000 )       (  0.0000000 )
                  (  0.0000000  0.0000000 -1.0000000 )       ( -4.0528492 )


      isym = 11     180 deg rotation - cryst. axis [0,1,0]       

 cryst.   s(11) = (    -1         -1          0      )    f =( -0.3333333 )
                  (     0          1          0      )       (  0.3333333 )
                  (     0          0         -1      )       ( -0.5000000 )

 cart.    s(11) = ( -0.5000000 -0.8660254  0.0000000 )    f =( -0.5000000 )
                  ( -0.8660254  0.5000000  0.0000000 )       (  0.2886751 )
                  (  0.0000000  0.0000000 -1.0000000 )       ( -4.0528492 )


      isym = 12     180 deg rotation - cryst. axis [1,1,0]       

 cryst.   s(12) = (     0          1          0      )    f =( -0.3333333 )
                  (     1          0          0      )       (  0.3333333 )
                  (     0          0         -1      )       ( -0.5000000 )

 cart.    s(12) = ( -0.5000000  0.8660254  0.0000000 )    f =( -0.5000000 )
                  (  0.8660254  0.5000000  0.0000000 )       (  0.2886751 )
                  (  0.0000000  0.0000000 -1.0000000 )       ( -4.0528492 )


      isym = 13     inversion                                    

 cryst.   s(13) = (    -1          0          0      )    f =( -0.3333333 )
                  (     0         -1          0      )       (  0.3333333 )
                  (     0          0         -1      )       ( -0.5000000 )

 cart.    s(13) = ( -1.0000000  0.0000000  0.0000000 )    f =( -0.5000000 )
                  (  0.0000000 -1.0000000  0.0000000 )       (  0.2886751 )
                  (  0.0000000  0.0000000 -1.0000000 )       ( -4.0528492 )


      isym = 14     inv. 180 deg rotation - cart. axis [0,0,1]   

 cryst.   s(14) = (     1          0          0      )    f =(  0.0000000 )
                  (     0          1          0      )       (  0.0000000 )
                  (     0          0         -1      )       ( -0.5000000 )

 cart.    s(14) = (  1.0000000 -0.0000000  0.0000000 )    f =(  0.0000000 )
                  (  0.0000000  1.0000000  0.0000000 )       (  0.0000000 )
                  (  0.0000000  0.0000000 -1.0000000 )       ( -4.0528492 )


      isym = 15     inv. 180 deg rotation - cart. axis [0,1,0]   

 cryst.   s(15) = (     1          0          0      )    f =( -0.3333333 )
                  (    -1         -1          0      )       (  0.3333333 )
                  (     0          0          1      )       (  0.0000000 )

 cart.    s(15) = (  1.0000000  0.0000000  0.0000000 )    f =( -0.5000000 )
                  (  0.0000000 -1.0000000  0.0000000 )       (  0.2886751 )
                  (  0.0000000  0.0000000  1.0000000 )       (  0.0000000 )


      isym = 16     inv. 180 deg rotation - cart. axis [1,0,0]   

 cryst.   s(16) = (    -1          0          0      )
                  (     1          1          0      )
                  (     0          0          1      )

 cart.    s(16) = ( -1.0000000 -0.0000000  0.0000000 )
                  (  0.0000000  1.0000000  0.0000000 )
                  (  0.0000000  0.0000000  1.0000000 )


      isym = 17     inv.  60 deg rotation - cryst. axis [0,0,1]  

 cryst.   s(17) = (    -1         -1          0      )    f =(  0.0000000 )
                  (     1          0          0      )       (  0.0000000 )
                  (     0          0         -1      )       ( -0.5000000 )

 cart.    s(17) = ( -0.5000000  0.8660254  0.0000000 )    f =(  0.0000000 )
                  ( -0.8660254 -0.5000000  0.0000000 )       (  0.0000000 )
                  (  0.0000000  0.0000000 -1.0000000 )       ( -4.0528492 )


      isym = 18     inv.  60 deg rotation - cryst. axis [0,0,-1] 

 cryst.   s(18) = (     0          1          0      )    f =(  0.0000000 )
                  (    -1         -1          0      )       (  0.0000000 )
                  (     0          0         -1      )       ( -0.5000000 )

 cart.    s(18) = ( -0.5000000 -0.8660254  0.0000000 )    f =(  0.0000000 )
                  (  0.8660254 -0.5000000  0.0000000 )       (  0.0000000 )
                  (  0.0000000  0.0000000 -1.0000000 )       ( -4.0528492 )


      isym = 19     inv. 120 deg rotation - cryst. axis [0,0,1]  

 cryst.   s(19) = (     0         -1          0      )    f =( -0.3333333 )
                  (     1          1          0      )       (  0.3333333 )
                  (     0          0         -1      )       ( -0.5000000 )

 cart.    s(19) = (  0.5000000  0.8660254  0.0000000 )    f =( -0.5000000 )
                  ( -0.8660254  0.5000000  0.0000000 )       (  0.2886751 )
                  (  0.0000000  0.0000000 -1.0000000 )       ( -4.0528492 )


      isym = 20     inv. 120 deg rotation - cryst. axis [0,0,-1] 

 cryst.   s(20) = (     1          1          0      )    f =( -0.3333333 )
                  (    -1          0          0      )       (  0.3333333 )
                  (     0          0         -1      )       ( -0.5000000 )

 cart.    s(20) = (  0.5000000 -0.8660254  0.0000000 )    f =( -0.5000000 )
                  (  0.8660254  0.5000000  0.0000000 )       (  0.2886751 )
                  (  0.0000000  0.0000000 -1.0000000 )       ( -4.0528492 )


      isym = 21     inv. 180 deg rotation - cryst. axis [1,-1,0] 

 cryst.   s(21) = (     0          1          0      )    f =( -0.3333333 )
                  (     1          0          0      )       (  0.3333333 )
                  (     0          0          1      )       (  0.0000000 )

 cart.    s(21) = ( -0.5000000  0.8660254  0.0000000 )    f =( -0.5000000 )
                  (  0.8660254  0.5000000  0.0000000 )       (  0.2886751 )
                  (  0.0000000  0.0000000  1.0000000 )       (  0.0000000 )


      isym = 22     inv. 180 deg rotation - cryst. axis [2,1,0]  

 cryst.   s(22) = (    -1         -1          0      )    f =( -0.3333333 )
                  (     0          1          0      )       (  0.3333333 )
                  (     0          0          1      )       (  0.0000000 )

 cart.    s(22) = ( -0.5000000 -0.8660254  0.0000000 )    f =( -0.5000000 )
                  ( -0.8660254  0.5000000  0.0000000 )       (  0.2886751 )
                  (  0.0000000  0.0000000  1.0000000 )       (  0.0000000 )


      isym = 23     inv. 180 deg rotation - cryst. axis [0,1,0]  

 cryst.   s(23) = (     1          1          0      )
                  (     0         -1          0      )
                  (     0          0          1      )

 cart.    s(23) = (  0.5000000  0.8660254  0.0000000 )
                  (  0.8660254 -0.5000000  0.0000000 )
                  (  0.0000000  0.0000000  1.0000000 )


      isym = 24     inv. 180 deg rotation - cryst. axis [1,1,0]  

 cryst.   s(24) = (     0         -1          0      )
                  (    -1          0          0      )
                  (     0          0          1      )

 cart.    s(24) = (  0.5000000 -0.8660254  0.0000000 )
                  ( -0.8660254 -0.5000000  0.0000000 )
                  (  0.0000000  0.0000000  1.0000000 )


     point group D_6h(6/mmm)
     there are 12 classes
     the character table:

       E     2C6   2C3   C2    3C2'  3C2'' i     2S3   2S6   s_h   3s_d  3s_v 
A_1g   1.00  1.00  1.00  1.00  1.00  1.00  1.00  1.00  1.00  1.00  1.00  1.00
A_2g   1.00  1.00  1.00  1.00 -1.00 -1.00  1.00  1.00  1.00  1.00 -1.00 -1.00
B_1g   1.00 -1.00  1.00 -1.00  1.00 -1.00  1.00 -1.00  1.00 -1.00  1.00 -1.00
B_2g   1.00 -1.00  1.00 -1.00 -1.00  1.00  1.00 -1.00  1.00 -1.00 -1.00  1.00
E_1g   2.00  1.00 -1.00 -2.00  0.00  0.00  2.00  1.00 -1.00 -2.00  0.00  0.00
E_2g   2.00 -1.00 -1.00  2.00  0.00  0.00  2.00 -1.00 -1.00  2.00  0.00  0.00
A_1u   1.00  1.00  1.00  1.00  1.00  1.00 -1.00 -1.00 -1.00 -1.00 -1.00 -1.00
A_2u   1.00  1.00  1.00  1.00 -1.00 -1.00 -1.00 -1.00 -1.00 -1.00  1.00  1.00
B_1u   1.00 -1.00  1.00 -1.00  1.00 -1.00 -1.00  1.00 -1.00  1.00 -1.00  1.00
B_2u   1.00 -1.00  1.00 -1.00 -1.00  1.00 -1.00  1.00 -1.00  1.00  1.00 -1.00
E_1u   2.00  1.00 -1.00 -2.00  0.00  0.00 -2.00 -1.00  1.00  2.00  0.00  0.00
E_2u   2.00 -1.00 -1.00  2.00  0.00  0.00 -2.00  1.00  1.00 -2.00  0.00  0.00

     the symmetry operations in each class and the name of the first element:

     E        1
          identity                                               
     2C6      5    6
           60 deg rotation - cryst. axis [0,0,1]                 
     2C3      7    8
          120 deg rotation - cryst. axis [0,0,1]                 
     C2       2
          180 deg rotation - cart. axis [0,0,1]                  
     3C2'     4   12   11
          180 deg rotation - cart. axis [1,0,0]                  
     3C2''    3    9   10
          180 deg rotation - cart. axis [0,1,0]                  
     i       13
          inversion                                              
     2S3     17   18
          inv.  60 deg rotation - cryst. axis [0,0,1]            
     2S6     19   20
          inv. 120 deg rotation - cryst. axis [0,0,1]            
     s_h     14
          inv. 180 deg rotation - cart. axis [0,0,1]             
     3s_d    16   24   23
          inv. 180 deg rotation - cart. axis [1,0,0]             
     3s_v    15   21   22
          inv. 180 deg rotation - cart. axis [0,1,0]             

   Cartesian axes

     site n.     atom                  positions (alat units)
         1           C   tau(   1) = (   0.0000000   0.0000000   2.0264246  )
         2           C   tau(   2) = (  -0.0000000   0.5773503   2.0264246  )

   Crystallographic axes

     site n.     atom                  positions (cryst. coord.)
         1           C   tau(   1) = (  0.0000000  0.0000000  0.2500000  )
         2           C   tau(   2) = (  0.3333333  0.6666667  0.2500000  )

     number of k points=   817 (tetrahedron method)
                       cart. coord. in units 2pi/alat
        k(    1) = (   0.0000000   0.0000000   0.0000000), wk =   0.0002170
        k(    2) = (   0.0000000   0.0120281   0.0000000), wk =   0.0013021
        k(    3) = (   0.0000000   0.0240563   0.0000000), wk =   0.0013021
        k(    4) = (   0.0000000   0.0360844   0.0000000), wk =   0.0013021
        k(    5) = (   0.0000000   0.0481125   0.0000000), wk =   0.0013021
        k(    6) = (   0.0000000   0.0601407   0.0000000), wk =   0.0013021
        k(    7) = (   0.0000000   0.0721688   0.0000000), wk =   0.0013021
        k(    8) = (   0.0000000   0.0841969   0.0000000), wk =   0.0013021
        k(    9) = (   0.0000000   0.0962250   0.0000000), wk =   0.0013021
        k(   10) = (   0.0000000   0.1082532   0.0000000), wk =   0.0013021
        k(   11) = (   0.0000000   0.1202813   0.0000000), wk =   0.0013021
        k(   12) = (   0.0000000   0.1323094   0.0000000), wk =   0.0013021
        k(   13) = (   0.0000000   0.1443376   0.0000000), wk =   0.0013021
        k(   14) = (   0.0000000   0.1563657   0.0000000), wk =   0.0013021
        k(   15) = (   0.0000000   0.1683938   0.0000000), wk =   0.0013021
        k(   16) = (   0.0000000   0.1804220   0.0000000), wk =   0.0013021
        k(   17) = (   0.0000000   0.1924501   0.0000000), wk =   0.0013021
        k(   18) = (   0.0000000   0.2044782   0.0000000), wk =   0.0013021
        k(   19) = (   0.0000000   0.2165064   0.0000000), wk =   0.0013021
        k(   20) = (   0.0000000   0.2285345   0.0000000), wk =   0.0013021
        k(   21) = (   0.0000000   0.2405626   0.0000000), wk =   0.0013021
        k(   22) = (   0.0000000   0.2525907   0.0000000), wk =   0.0013021
        k(   23) = (   0.0000000   0.2646189   0.0000000), wk =   0.0013021
        k(   24) = (   0.0000000   0.2766470   0.0000000), wk =   0.0013021
        k(   25) = (   0.0000000   0.2886751   0.0000000), wk =   0.0013021
        k(   26) = (   0.0000000   0.3007033   0.0000000), wk =   0.0013021
        k(   27) = (   0.0000000   0.3127314   0.0000000), wk =   0.0013021
        k(   28) = (   0.0000000   0.3247595   0.0000000), wk =   0.0013021
        k(   29) = (   0.0000000   0.3367877   0.0000000), wk =   0.0013021
        k(   30) = (   0.0000000   0.3488158   0.0000000), wk =   0.0013021
        k(   31) = (   0.0000000   0.3608439   0.0000000), wk =   0.0013021
        k(   32) = (   0.0000000   0.3728720   0.0000000), wk =   0.0013021
        k(   33) = (   0.0000000   0.3849002   0.0000000), wk =   0.0013021
        k(   34) = (   0.0000000   0.3969283   0.0000000), wk =   0.0013021
        k(   35) = (   0.0000000   0.4089564   0.0000000), wk =   0.0013021
        k(   36) = (   0.0000000   0.4209846   0.0000000), wk =   0.0013021
        k(   37) = (   0.0000000   0.4330127   0.0000000), wk =   0.0013021
        k(   38) = (   0.0000000   0.4450408   0.0000000), wk =   0.0013021
        k(   39) = (   0.0000000   0.4570690   0.0000000), wk =   0.0013021
        k(   40) = (   0.0000000   0.4690971   0.0000000), wk =   0.0013021
        k(   41) = (   0.0000000   0.4811252   0.0000000), wk =   0.0013021
        k(   42) = (   0.0000000   0.4931534   0.0000000), wk =   0.0013021
        k(   43) = (   0.0000000   0.5051815   0.0000000), wk =   0.0013021
        k(   44) = (   0.0000000   0.5172096   0.0000000), wk =   0.0013021
        k(   45) = (   0.0000000   0.5292377   0.0000000), wk =   0.0013021
        k(   46) = (   0.0000000   0.5412659   0.0000000), wk =   0.0013021
        k(   47) = (   0.0000000   0.5532940   0.0000000), wk =   0.0013021
        k(   48) = (   0.0000000   0.5653221   0.0000000), wk =   0.0013021
        k(   49) = (   0.0000000  -0.5773503   0.0000000), wk =   0.0006510
        k(   50) = (   0.0104167   0.0180422   0.0000000), wk =   0.0013021
        k(   51) = (   0.0104167   0.0300703   0.0000000), wk =   0.0026042
        k(   52) = (   0.0104167   0.0420985   0.0000000), wk =   0.0026042
        k(   53) = (   0.0104167   0.0541266   0.0000000), wk =   0.0026042
        k(   54) = (   0.0104167   0.0661547   0.0000000), wk =   0.0026042
        k(   55) = (   0.0104167   0.0781828   0.0000000), wk =   0.0026042
        k(   56) = (   0.0104167   0.0902110   0.0000000), wk =   0.0026042
        k(   57) = (   0.0104167   0.1022391   0.0000000), wk =   0.0026042
        k(   58) = (   0.0104167   0.1142672   0.0000000), wk =   0.0026042
        k(   59) = (   0.0104167   0.1262954   0.0000000), wk =   0.0026042
        k(   60) = (   0.0104167   0.1383235   0.0000000), wk =   0.0026042
        k(   61) = (   0.0104167   0.1503516   0.0000000), wk =   0.0026042
        k(   62) = (   0.0104167   0.1623798   0.0000000), wk =   0.0026042
        k(   63) = (   0.0104167   0.1744079   0.0000000), wk =   0.0026042
        k(   64) = (   0.0104167   0.1864360   0.0000000), wk =   0.0026042
        k(   65) = (   0.0104167   0.1984642   0.0000000), wk =   0.0026042
        k(   66) = (   0.0104167   0.2104923   0.0000000), wk =   0.0026042
        k(   67) = (   0.0104167   0.2225204   0.0000000), wk =   0.0026042
        k(   68) = (   0.0104167   0.2345485   0.0000000), wk =   0.0026042
        k(   69) = (   0.0104167   0.2465767   0.0000000), wk =   0.0026042
        k(   70) = (   0.0104167   0.2586048   0.0000000), wk =   0.0026042
        k(   71) = (   0.0104167   0.2706329   0.0000000), wk =   0.0026042
        k(   72) = (   0.0104167   0.2826611   0.0000000), wk =   0.0026042
        k(   73) = (   0.0104167   0.2946892   0.0000000), wk =   0.0026042
        k(   74) = (   0.0104167   0.3067173   0.0000000), wk =   0.0026042
        k(   75) = (   0.0104167   0.3187455   0.0000000), wk =   0.0026042
        k(   76) = (   0.0104167   0.3307736   0.0000000), wk =   0.0026042
        k(   77) = (   0.0104167   0.3428017   0.0000000), wk =   0.0026042
        k(   78) = (   0.0104167   0.3548299   0.0000000), wk =   0.0026042
        k(   79) = (   0.0104167   0.3668580   0.0000000), wk =   0.0026042
        k(   80) = (   0.0104167   0.3788861   0.0000000), wk =   0.0026042
        k(   81) = (   0.0104167   0.3909142   0.0000000), wk =   0.0026042
        k(   82) = (   0.0104167   0.4029424   0.0000000), wk =   0.0026042
        k(   83) = (   0.0104167   0.4149705   0.0000000), wk =   0.0026042
        k(   84) = (   0.0104167   0.4269986   0.0000000), wk =   0.0026042
        k(   85) = (   0.0104167   0.4390268   0.0000000), wk =   0.0026042
        k(   86) = (   0.0104167   0.4510549   0.0000000), wk =   0.0026042
        k(   87) = (   0.0104167   0.4630830   0.0000000), wk =   0.0026042
        k(   88) = (   0.0104167   0.4751112   0.0000000), wk =   0.0026042
        k(   89) = (   0.0104167   0.4871393   0.0000000), wk =   0.0026042
        k(   90) = (   0.0104167   0.4991674   0.0000000), wk =   0.0026042
        k(   91) = (   0.0104167   0.5111956   0.0000000), wk =   0.0026042
        k(   92) = (   0.0104167   0.5232237   0.0000000), wk =   0.0026042
        k(   93) = (   0.0104167   0.5352518   0.0000000), wk =   0.0026042
        k(   94) = (   0.0104167   0.5472799   0.0000000), wk =   0.0026042
        k(   95) = (   0.0104167   0.5593081   0.0000000), wk =   0.0026042
        k(   96) = (   0.0104167   0.5713362   0.0000000), wk =   0.0026042
        k(   97) = (   0.0208333   0.0360844   0.0000000), wk =   0.0013021
        k(   98) = (   0.0208333   0.0481125   0.0000000), wk =   0.0026042
        k(   99) = (   0.0208333   0.0601407   0.0000000), wk =   0.0026042
        k(  100) = (   0.0208333   0.0721688   0.0000000), wk =   0.0026042
        k(  101) = (   0.0208333   0.0841969   0.0000000), wk =   0.0026042
        k(  102) = (   0.0208333   0.0962250   0.0000000), wk =   0.0026042
        k(  103) = (   0.0208333   0.1082532   0.0000000), wk =   0.0026042
        k(  104) = (   0.0208333   0.1202813   0.0000000), wk =   0.0026042
        k(  105) = (   0.0208333   0.1323094   0.0000000), wk =   0.0026042
        k(  106) = (   0.0208333   0.1443376   0.0000000), wk =   0.0026042
        k(  107) = (   0.0208333   0.1563657   0.0000000), wk =   0.0026042
        k(  108) = (   0.0208333   0.1683938   0.0000000), wk =   0.0026042
        k(  109) = (   0.0208333   0.1804220   0.0000000), wk =   0.0026042
        k(  110) = (   0.0208333   0.1924501   0.0000000), wk =   0.0026042
        k(  111) = (   0.0208333   0.2044782   0.0000000), wk =   0.0026042
        k(  112) = (   0.0208333   0.2165064   0.0000000), wk =   0.0026042
        k(  113) = (   0.0208333   0.2285345   0.0000000), wk =   0.0026042
        k(  114) = (   0.0208333   0.2405626   0.0000000), wk =   0.0026042
        k(  115) = (   0.0208333   0.2525907   0.0000000), wk =   0.0026042
        k(  116) = (   0.0208333   0.2646189   0.0000000), wk =   0.0026042
        k(  117) = (   0.0208333   0.2766470   0.0000000), wk =   0.0026042
        k(  118) = (   0.0208333   0.2886751   0.0000000), wk =   0.0026042
        k(  119) = (   0.0208333   0.3007033   0.0000000), wk =   0.0026042
        k(  120) = (   0.0208333   0.3127314   0.0000000), wk =   0.0026042
        k(  121) = (   0.0208333   0.3247595   0.0000000), wk =   0.0026042
        k(  122) = (   0.0208333   0.3367877   0.0000000), wk =   0.0026042
        k(  123) = (   0.0208333   0.3488158   0.0000000), wk =   0.0026042
        k(  124) = (   0.0208333   0.3608439   0.0000000), wk =   0.0026042
        k(  125) = (   0.0208333   0.3728720   0.0000000), wk =   0.0026042
        k(  126) = (   0.0208333   0.3849002   0.0000000), wk =   0.0026042
        k(  127) = (   0.0208333   0.3969283   0.0000000), wk =   0.0026042
        k(  128) = (   0.0208333   0.4089564   0.0000000), wk =   0.0026042
        k(  129) = (   0.0208333   0.4209846   0.0000000), wk =   0.0026042
        k(  130) = (   0.0208333   0.4330127   0.0000000), wk =   0.0026042
        k(  131) = (   0.0208333   0.4450408   0.0000000), wk =   0.0026042
        k(  132) = (   0.0208333   0.4570690   0.0000000), wk =   0.0026042
        k(  133) = (   0.0208333   0.4690971   0.0000000), wk =   0.0026042
        k(  134) = (   0.0208333   0.4811252   0.0000000), wk =   0.0026042
        k(  135) = (   0.0208333   0.4931534   0.0000000), wk =   0.0026042
        k(  136) = (   0.0208333   0.5051815   0.0000000), wk =   0.0026042
        k(  137) = (   0.0208333   0.5172096   0.0000000), wk =   0.0026042
        k(  138) = (   0.0208333   0.5292377   0.0000000), wk =   0.0026042
        k(  139) = (   0.0208333   0.5412659   0.0000000), wk =   0.0026042
        k(  140) = (   0.0208333   0.5532940   0.0000000), wk =   0.0026042
        k(  141) = (   0.0208333   0.5653221   0.0000000), wk =   0.0026042
        k(  142) = (   0.0208333   0.5773503   0.0000000), wk =   0.0013021
        k(  143) = (   0.0312500   0.0541266   0.0000000), wk =   0.0013021
        k(  144) = (   0.0312500   0.0661547   0.0000000), wk =   0.0026042
        k(  145) = (   0.0312500   0.0781828   0.0000000), wk =   0.0026042
        k(  146) = (   0.0312500   0.0902110   0.0000000), wk =   0.0026042
        k(  147) = (   0.0312500   0.1022391   0.0000000), wk =   0.0026042
        k(  148) = (   0.0312500   0.1142672   0.0000000), wk =   0.0026042
        k(  149) = (   0.0312500   0.1262954   0.0000000), wk =   0.0026042
        k(  150) = (   0.0312500   0.1383235   0.0000000), wk =   0.0026042
        k(  151) = (   0.0312500   0.1503516   0.0000000), wk =   0.0026042
        k(  152) = (   0.0312500   0.1623798   0.0000000), wk =   0.0026042
        k(  153) = (   0.0312500   0.1744079   0.0000000), wk =   0.0026042
        k(  154) = (   0.0312500   0.1864360   0.0000000), wk =   0.0026042
        k(  155) = (   0.0312500   0.1984642   0.0000000), wk =   0.0026042
        k(  156) = (   0.0312500   0.2104923   0.0000000), wk =   0.0026042
        k(  157) = (   0.0312500   0.2225204   0.0000000), wk =   0.0026042
        k(  158) = (   0.0312500   0.2345485   0.0000000), wk =   0.0026042
        k(  159) = (   0.0312500   0.2465767   0.0000000), wk =   0.0026042
        k(  160) = (   0.0312500   0.2586048   0.0000000), wk =   0.0026042
        k(  161) = (   0.0312500   0.2706329   0.0000000), wk =   0.0026042
        k(  162) = (   0.0312500   0.2826611   0.0000000), wk =   0.0026042
        k(  163) = (   0.0312500   0.2946892   0.0000000), wk =   0.0026042
        k(  164) = (   0.0312500   0.3067173   0.0000000), wk =   0.0026042
        k(  165) = (   0.0312500   0.3187455   0.0000000), wk =   0.0026042
        k(  166) = (   0.0312500   0.3307736   0.0000000), wk =   0.0026042
        k(  167) = (   0.0312500   0.3428017   0.0000000), wk =   0.0026042
        k(  168) = (   0.0312500   0.3548299   0.0000000), wk =   0.0026042
        k(  169) = (   0.0312500   0.3668580   0.0000000), wk =   0.0026042
        k(  170) = (   0.0312500   0.3788861   0.0000000), wk =   0.0026042
        k(  171) = (   0.0312500   0.3909142   0.0000000), wk =   0.0026042
        k(  172) = (   0.0312500   0.4029424   0.0000000), wk =   0.0026042
        k(  173) = (   0.0312500   0.4149705   0.0000000), wk =   0.0026042
        k(  174) = (   0.0312500   0.4269986   0.0000000), wk =   0.0026042
        k(  175) = (   0.0312500   0.4390268   0.0000000), wk =   0.0026042
        k(  176) = (   0.0312500   0.4510549   0.0000000), wk =   0.0026042
        k(  177) = (   0.0312500   0.4630830   0.0000000), wk =   0.0026042
        k(  178) = (   0.0312500   0.4751112   0.0000000), wk =   0.0026042
        k(  179) = (   0.0312500   0.4871393   0.0000000), wk =   0.0026042
        k(  180) = (   0.0312500   0.4991674   0.0000000), wk =   0.0026042
        k(  181) = (   0.0312500   0.5111956   0.0000000), wk =   0.0026042
        k(  182) = (   0.0312500   0.5232237   0.0000000), wk =   0.0026042
        k(  183) = (   0.0312500   0.5352518   0.0000000), wk =   0.0026042
        k(  184) = (   0.0312500   0.5472799   0.0000000), wk =   0.0026042
        k(  185) = (   0.0312500   0.5593081   0.0000000), wk =   0.0026042
        k(  186) = (   0.0312500   0.5713362   0.0000000), wk =   0.0026042
        k(  187) = (   0.0416667   0.0721688   0.0000000), wk =   0.0013021
        k(  188) = (   0.0416667   0.0841969   0.0000000), wk =   0.0026042
        k(  189) = (   0.0416667   0.0962250   0.0000000), wk =   0.0026042
        k(  190) = (   0.0416667   0.1082532   0.0000000), wk =   0.0026042
        k(  191) = (   0.0416667   0.1202813   0.0000000), wk =   0.0026042
        k(  192) = (   0.0416667   0.1323094   0.0000000), wk =   0.0026042
        k(  193) = (   0.0416667   0.1443376   0.0000000), wk =   0.0026042
        k(  194) = (   0.0416667   0.1563657   0.0000000), wk =   0.0026042
        k(  195) = (   0.0416667   0.1683938   0.0000000), wk =   0.0026042
        k(  196) = (   0.0416667   0.1804220   0.0000000), wk =   0.0026042
        k(  197) = (   0.0416667   0.1924501   0.0000000), wk =   0.0026042
        k(  198) = (   0.0416667   0.2044782   0.0000000), wk =   0.0026042
        k(  199) = (   0.0416667   0.2165064   0.0000000), wk =   0.0026042
        k(  200) = (   0.0416667   0.2285345   0.0000000), wk =   0.0026042
        k(  201) = (   0.0416667   0.2405626   0.0000000), wk =   0.0026042
        k(  202) = (   0.0416667   0.2525907   0.0000000), wk =   0.0026042
        k(  203) = (   0.0416667   0.2646189   0.0000000), wk =   0.0026042
        k(  204) = (   0.0416667   0.2766470   0.0000000), wk =   0.0026042
        k(  205) = (   0.0416667   0.2886751   0.0000000), wk =   0.0026042
        k(  206) = (   0.0416667   0.3007033   0.0000000), wk =   0.0026042
        k(  207) = (   0.0416667   0.3127314   0.0000000), wk =   0.0026042
        k(  208) = (   0.0416667   0.3247595   0.0000000), wk =   0.0026042
        k(  209) = (   0.0416667   0.3367877   0.0000000), wk =   0.0026042
        k(  210) = (   0.0416667   0.3488158   0.0000000), wk =   0.0026042
        k(  211) = (   0.0416667   0.3608439   0.0000000), wk =   0.0026042
        k(  212) = (   0.0416667   0.3728720   0.0000000), wk =   0.0026042
        k(  213) = (   0.0416667   0.3849002   0.0000000), wk =   0.0026042
        k(  214) = (   0.0416667   0.3969283   0.0000000), wk =   0.0026042
        k(  215) = (   0.0416667   0.4089564   0.0000000), wk =   0.0026042
        k(  216) = (   0.0416667   0.4209846   0.0000000), wk =   0.0026042
        k(  217) = (   0.0416667   0.4330127   0.0000000), wk =   0.0026042
        k(  218) = (   0.0416667   0.4450408   0.0000000), wk =   0.0026042
        k(  219) = (   0.0416667   0.4570690   0.0000000), wk =   0.0026042
        k(  220) = (   0.0416667   0.4690971   0.0000000), wk =   0.0026042
        k(  221) = (   0.0416667   0.4811252   0.0000000), wk =   0.0026042
        k(  222) = (   0.0416667   0.4931534   0.0000000), wk =   0.0026042
        k(  223) = (   0.0416667   0.5051815   0.0000000), wk =   0.0026042
        k(  224) = (   0.0416667   0.5172096   0.0000000), wk =   0.0026042
        k(  225) = (   0.0416667   0.5292377   0.0000000), wk =   0.0026042
        k(  226) = (   0.0416667   0.5412659   0.0000000), wk =   0.0026042
        k(  227) = (   0.0416667   0.5532940   0.0000000), wk =   0.0026042
        k(  228) = (   0.0416667   0.5653221   0.0000000), wk =   0.0026042
        k(  229) = (   0.0416667   0.5773503   0.0000000), wk =   0.0013021
        k(  230) = (   0.0520833   0.0902110   0.0000000), wk =   0.0013021
        k(  231) = (   0.0520833   0.1022391   0.0000000), wk =   0.0026042
        k(  232) = (   0.0520833   0.1142672   0.0000000), wk =   0.0026042
        k(  233) = (   0.0520833   0.1262954   0.0000000), wk =   0.0026042
        k(  234) = (   0.0520833   0.1383235   0.0000000), wk =   0.0026042
        k(  235) = (   0.0520833   0.1503516   0.0000000), wk =   0.0026042
        k(  236) = (   0.0520833   0.1623798   0.0000000), wk =   0.0026042
        k(  237) = (   0.0520833   0.1744079   0.0000000), wk =   0.0026042
        k(  238) = (   0.0520833   0.1864360   0.0000000), wk =   0.0026042
        k(  239) = (   0.0520833   0.1984642   0.0000000), wk =   0.0026042
        k(  240) = (   0.0520833   0.2104923   0.0000000), wk =   0.0026042
        k(  241) = (   0.0520833   0.2225204   0.0000000), wk =   0.0026042
        k(  242) = (   0.0520833   0.2345485   0.0000000), wk =   0.0026042
        k(  243) = (   0.0520833   0.2465767   0.0000000), wk =   0.0026042
        k(  244) = (   0.0520833   0.2586048   0.0000000), wk =   0.0026042
        k(  245) = (   0.0520833   0.2706329   0.0000000), wk =   0.0026042
        k(  246) = (   0.0520833   0.2826611   0.0000000), wk =   0.0026042
        k(  247) = (   0.0520833   0.2946892   0.0000000), wk =   0.0026042
        k(  248) = (   0.0520833   0.3067173   0.0000000), wk =   0.0026042
        k(  249) = (   0.0520833   0.3187455   0.0000000), wk =   0.0026042
        k(  250) = (   0.0520833   0.3307736   0.0000000), wk =   0.0026042
        k(  251) = (   0.0520833   0.3428017   0.0000000), wk =   0.0026042
        k(  252) = (   0.0520833   0.3548299   0.0000000), wk =   0.0026042
        k(  253) = (   0.0520833   0.3668580   0.0000000), wk =   0.0026042
        k(  254) = (   0.0520833   0.3788861   0.0000000), wk =   0.0026042
        k(  255) = (   0.0520833   0.3909142   0.0000000), wk =   0.0026042
        k(  256) = (   0.0520833   0.4029424   0.0000000), wk =   0.0026042
        k(  257) = (   0.0520833   0.4149705   0.0000000), wk =   0.0026042
        k(  258) = (   0.0520833   0.4269986   0.0000000), wk =   0.0026042
        k(  259) = (   0.0520833   0.4390268   0.0000000), wk =   0.0026042
        k(  260) = (   0.0520833   0.4510549   0.0000000), wk =   0.0026042
        k(  261) = (   0.0520833   0.4630830   0.0000000), wk =   0.0026042
        k(  262) = (   0.0520833   0.4751112   0.0000000), wk =   0.0026042
        k(  263) = (   0.0520833   0.4871393   0.0000000), wk =   0.0026042
        k(  264) = (   0.0520833   0.4991674   0.0000000), wk =   0.0026042
        k(  265) = (   0.0520833   0.5111956   0.0000000), wk =   0.0026042
        k(  266) = (   0.0520833   0.5232237   0.0000000), wk =   0.0026042
        k(  267) = (   0.0520833   0.5352518   0.0000000), wk =   0.0026042
        k(  268) = (   0.0520833   0.5472799   0.0000000), wk =   0.0026042
        k(  269) = (   0.0520833   0.5593081   0.0000000), wk =   0.0026042
        k(  270) = (   0.0520833   0.5713362   0.0000000), wk =   0.0026042
        k(  271) = (   0.0625000   0.1082532   0.0000000), wk =   0.0013021
        k(  272) = (   0.0625000   0.1202813   0.0000000), wk =   0.0026042
        k(  273) = (   0.0625000   0.1323094   0.0000000), wk =   0.0026042
        k(  274) = (   0.0625000   0.1443376   0.0000000), wk =   0.0026042
        k(  275) = (   0.0625000   0.1563657   0.0000000), wk =   0.0026042
        k(  276) = (   0.0625000   0.1683938   0.0000000), wk =   0.0026042
        k(  277) = (   0.0625000   0.1804220   0.0000000), wk =   0.0026042
        k(  278) = (   0.0625000   0.1924501   0.0000000), wk =   0.0026042
        k(  279) = (   0.0625000   0.2044782   0.0000000), wk =   0.0026042
        k(  280) = (   0.0625000   0.2165064   0.0000000), wk =   0.0026042
        k(  281) = (   0.0625000   0.2285345   0.0000000), wk =   0.0026042
        k(  282) = (   0.0625000   0.2405626   0.0000000), wk =   0.0026042
        k(  283) = (   0.0625000   0.2525907   0.0000000), wk =   0.0026042
        k(  284) = (   0.0625000   0.2646189   0.0000000), wk =   0.0026042
        k(  285) = (   0.0625000   0.2766470   0.0000000), wk =   0.0026042
        k(  286) = (   0.0625000   0.2886751   0.0000000), wk =   0.0026042
        k(  287) = (   0.0625000   0.3007033   0.0000000), wk =   0.0026042
        k(  288) = (   0.0625000   0.3127314   0.0000000), wk =   0.0026042
        k(  289) = (   0.0625000   0.3247595   0.0000000), wk =   0.0026042
        k(  290) = (   0.0625000   0.3367877   0.0000000), wk =   0.0026042
        k(  291) = (   0.0625000   0.3488158   0.0000000), wk =   0.0026042
        k(  292) = (   0.0625000   0.3608439   0.0000000), wk =   0.0026042
        k(  293) = (   0.0625000   0.3728720   0.0000000), wk =   0.0026042
        k(  294) = (   0.0625000   0.3849002   0.0000000), wk =   0.0026042
        k(  295) = (   0.0625000   0.3969283   0.0000000), wk =   0.0026042
        k(  296) = (   0.0625000   0.4089564   0.0000000), wk =   0.0026042
        k(  297) = (   0.0625000   0.4209846   0.0000000), wk =   0.0026042
        k(  298) = (   0.0625000   0.4330127   0.0000000), wk =   0.0026042
        k(  299) = (   0.0625000   0.4450408   0.0000000), wk =   0.0026042
        k(  300) = (   0.0625000   0.4570690   0.0000000), wk =   0.0026042
        k(  301) = (   0.0625000   0.4690971   0.0000000), wk =   0.0026042
        k(  302) = (   0.0625000   0.4811252   0.0000000), wk =   0.0026042
        k(  303) = (   0.0625000   0.4931534   0.0000000), wk =   0.0026042
        k(  304) = (   0.0625000   0.5051815   0.0000000), wk =   0.0026042
        k(  305) = (   0.0625000   0.5172096   0.0000000), wk =   0.0026042
        k(  306) = (   0.0625000   0.5292377   0.0000000), wk =   0.0026042
        k(  307) = (   0.0625000   0.5412659   0.0000000), wk =   0.0026042
        k(  308) = (   0.0625000   0.5532940   0.0000000), wk =   0.0026042
        k(  309) = (   0.0625000   0.5653221   0.0000000), wk =   0.0026042
        k(  310) = (   0.0625000   0.5773503   0.0000000), wk =   0.0013021
        k(  311) = (   0.0729167   0.1262954   0.0000000), wk =   0.0013021
        k(  312) = (   0.0729167   0.1383235   0.0000000), wk =   0.0026042
        k(  313) = (   0.0729167   0.1503516   0.0000000), wk =   0.0026042
        k(  314) = (   0.0729167   0.1623798   0.0000000), wk =   0.0026042
        k(  315) = (   0.0729167   0.1744079   0.0000000), wk =   0.0026042
        k(  316) = (   0.0729167   0.1864360   0.0000000), wk =   0.0026042
        k(  317) = (   0.0729167   0.1984642   0.0000000), wk =   0.0026042
        k(  318) = (   0.0729167   0.2104923   0.0000000), wk =   0.0026042
        k(  319) = (   0.0729167   0.2225204   0.0000000), wk =   0.0026042
        k(  320) = (   0.0729167   0.2345485   0.0000000), wk =   0.0026042
        k(  321) = (   0.0729167   0.2465767   0.0000000), wk =   0.0026042
        k(  322) = (   0.0729167   0.2586048   0.0000000), wk =   0.0026042
        k(  323) = (   0.0729167   0.2706329   0.0000000), wk =   0.0026042
        k(  324) = (   0.0729167   0.2826611   0.0000000), wk =   0.0026042
        k(  325) = (   0.0729167   0.2946892   0.0000000), wk =   0.0026042
        k(  326) = (   0.0729167   0.3067173   0.0000000), wk =   0.0026042
        k(  327) = (   0.0729167   0.3187455   0.0000000), wk =   0.0026042
        k(  328) = (   0.0729167   0.3307736   0.0000000), wk =   0.0026042
        k(  329) = (   0.0729167   0.3428017   0.0000000), wk =   0.0026042
        k(  330) = (   0.0729167   0.3548299   0.0000000), wk =   0.0026042
        k(  331) = (   0.0729167   0.3668580   0.0000000), wk =   0.0026042
        k(  332) = (   0.0729167   0.3788861   0.0000000), wk =   0.0026042
        k(  333) = (   0.0729167   0.3909142   0.0000000), wk =   0.0026042
        k(  334) = (   0.0729167   0.4029424   0.0000000), wk =   0.0026042
        k(  335) = (   0.0729167   0.4149705   0.0000000), wk =   0.0026042
        k(  336) = (   0.0729167   0.4269986   0.0000000), wk =   0.0026042
        k(  337) = (   0.0729167   0.4390268   0.0000000), wk =   0.0026042
        k(  338) = (   0.0729167   0.4510549   0.0000000), wk =   0.0026042
        k(  339) = (   0.0729167   0.4630830   0.0000000), wk =   0.0026042
        k(  340) = (   0.0729167   0.4751112   0.0000000), wk =   0.0026042
        k(  341) = (   0.0729167   0.4871393   0.0000000), wk =   0.0026042
        k(  342) = (   0.0729167   0.4991674   0.0000000), wk =   0.0026042
        k(  343) = (   0.0729167   0.5111956   0.0000000), wk =   0.0026042
        k(  344) = (   0.0729167   0.5232237   0.0000000), wk =   0.0026042
        k(  345) = (   0.0729167   0.5352518   0.0000000), wk =   0.0026042
        k(  346) = (   0.0729167   0.5472799   0.0000000), wk =   0.0026042
        k(  347) = (   0.0729167   0.5593081   0.0000000), wk =   0.0026042
        k(  348) = (   0.0729167   0.5713362   0.0000000), wk =   0.0026042
        k(  349) = (   0.0833333   0.1443376   0.0000000), wk =   0.0013021
        k(  350) = (   0.0833333   0.1563657   0.0000000), wk =   0.0026042
        k(  351) = (   0.0833333   0.1683938   0.0000000), wk =   0.0026042
        k(  352) = (   0.0833333   0.1804220   0.0000000), wk =   0.0026042
        k(  353) = (   0.0833333   0.1924501   0.0000000), wk =   0.0026042
        k(  354) = (   0.0833333   0.2044782   0.0000000), wk =   0.0026042
        k(  355) = (   0.0833333   0.2165064   0.0000000), wk =   0.0026042
        k(  356) = (   0.0833333   0.2285345   0.0000000), wk =   0.0026042
        k(  357) = (   0.0833333   0.2405626   0.0000000), wk =   0.0026042
        k(  358) = (   0.0833333   0.2525907   0.0000000), wk =   0.0026042
        k(  359) = (   0.0833333   0.2646189   0.0000000), wk =   0.0026042
        k(  360) = (   0.0833333   0.2766470   0.0000000), wk =   0.0026042
        k(  361) = (   0.0833333   0.2886751   0.0000000), wk =   0.0026042
        k(  362) = (   0.0833333   0.3007033   0.0000000), wk =   0.0026042
        k(  363) = (   0.0833333   0.3127314   0.0000000), wk =   0.0026042
        k(  364) = (   0.0833333   0.3247595   0.0000000), wk =   0.0026042
        k(  365) = (   0.0833333   0.3367877   0.0000000), wk =   0.0026042
        k(  366) = (   0.0833333   0.3488158   0.0000000), wk =   0.0026042
        k(  367) = (   0.0833333   0.3608439   0.0000000), wk =   0.0026042
        k(  368) = (   0.0833333   0.3728720   0.0000000), wk =   0.0026042
        k(  369) = (   0.0833333   0.3849002   0.0000000), wk =   0.0026042
        k(  370) = (   0.0833333   0.3969283   0.0000000), wk =   0.0026042
        k(  371) = (   0.0833333   0.4089564   0.0000000), wk =   0.0026042
        k(  372) = (   0.0833333   0.4209846   0.0000000), wk =   0.0026042
        k(  373) = (   0.0833333   0.4330127   0.0000000), wk =   0.0026042
        k(  374) = (   0.0833333   0.4450408   0.0000000), wk =   0.0026042
        k(  375) = (   0.0833333   0.4570690   0.0000000), wk =   0.0026042
        k(  376) = (   0.0833333   0.4690971   0.0000000), wk =   0.0026042
        k(  377) = (   0.0833333   0.4811252   0.0000000), wk =   0.0026042
        k(  378) = (   0.0833333   0.4931534   0.0000000), wk =   0.0026042
        k(  379) = (   0.0833333   0.5051815   0.0000000), wk =   0.0026042
        k(  380) = (   0.0833333   0.5172096   0.0000000), wk =   0.0026042
        k(  381) = (   0.0833333   0.5292377   0.0000000), wk =   0.0026042
        k(  382) = (   0.0833333   0.5412659   0.0000000), wk =   0.0026042
        k(  383) = (   0.0833333   0.5532940   0.0000000), wk =   0.0026042
        k(  384) = (   0.0833333   0.5653221   0.0000000), wk =   0.0026042
        k(  385) = (   0.0833333   0.5773503   0.0000000), wk =   0.0013021
        k(  386) = (   0.0937500   0.1623798   0.0000000), wk =   0.0013021
        k(  387) = (   0.0937500   0.1744079   0.0000000), wk =   0.0026042
        k(  388) = (   0.0937500   0.1864360   0.0000000), wk =   0.0026042
        k(  389) = (   0.0937500   0.1984642   0.0000000), wk =   0.0026042
        k(  390) = (   0.0937500   0.2104923   0.0000000), wk =   0.0026042
        k(  391) = (   0.0937500   0.2225204   0.0000000), wk =   0.0026042
        k(  392) = (   0.0937500   0.2345485   0.0000000), wk =   0.0026042
        k(  393) = (   0.0937500   0.2465767   0.0000000), wk =   0.0026042
        k(  394) = (   0.0937500   0.2586048   0.0000000), wk =   0.0026042
        k(  395) = (   0.0937500   0.2706329   0.0000000), wk =   0.0026042
        k(  396) = (   0.0937500   0.2826611   0.0000000), wk =   0.0026042
        k(  397) = (   0.0937500   0.2946892   0.0000000), wk =   0.0026042
        k(  398) = (   0.0937500   0.3067173   0.0000000), wk =   0.0026042
        k(  399) = (   0.0937500   0.3187455   0.0000000), wk =   0.0026042
        k(  400) = (   0.0937500   0.3307736   0.0000000), wk =   0.0026042
        k(  401) = (   0.0937500   0.3428017   0.0000000), wk =   0.0026042
        k(  402) = (   0.0937500   0.3548299   0.0000000), wk =   0.0026042
        k(  403) = (   0.0937500   0.3668580   0.0000000), wk =   0.0026042
        k(  404) = (   0.0937500   0.3788861   0.0000000), wk =   0.0026042
        k(  405) = (   0.0937500   0.3909142   0.0000000), wk =   0.0026042
        k(  406) = (   0.0937500   0.4029424   0.0000000), wk =   0.0026042
        k(  407) = (   0.0937500   0.4149705   0.0000000), wk =   0.0026042
        k(  408) = (   0.0937500   0.4269986   0.0000000), wk =   0.0026042
        k(  409) = (   0.0937500   0.4390268   0.0000000), wk =   0.0026042
        k(  410) = (   0.0937500   0.4510549   0.0000000), wk =   0.0026042
        k(  411) = (   0.0937500   0.4630830   0.0000000), wk =   0.0026042
        k(  412) = (   0.0937500   0.4751112   0.0000000), wk =   0.0026042
        k(  413) = (   0.0937500   0.4871393   0.0000000), wk =   0.0026042
        k(  414) = (   0.0937500   0.4991674   0.0000000), wk =   0.0026042
        k(  415) = (   0.0937500   0.5111956   0.0000000), wk =   0.0026042
        k(  416) = (   0.0937500   0.5232237   0.0000000), wk =   0.0026042
        k(  417) = (   0.0937500   0.5352518   0.0000000), wk =   0.0026042
        k(  418) = (   0.0937500   0.5472799   0.0000000), wk =   0.0026042
        k(  419) = (   0.0937500   0.5593081   0.0000000), wk =   0.0026042
        k(  420) = (   0.0937500   0.5713362   0.0000000), wk =   0.0026042
        k(  421) = (   0.1041667   0.1804220   0.0000000), wk =   0.0013021
        k(  422) = (   0.1041667   0.1924501   0.0000000), wk =   0.0026042
        k(  423) = (   0.1041667   0.2044782   0.0000000), wk =   0.0026042
        k(  424) = (   0.1041667   0.2165064   0.0000000), wk =   0.0026042
        k(  425) = (   0.1041667   0.2285345   0.0000000), wk =   0.0026042
        k(  426) = (   0.1041667   0.2405626   0.0000000), wk =   0.0026042
        k(  427) = (   0.1041667   0.2525907   0.0000000), wk =   0.0026042
        k(  428) = (   0.1041667   0.2646189   0.0000000), wk =   0.0026042
        k(  429) = (   0.1041667   0.2766470   0.0000000), wk =   0.0026042
        k(  430) = (   0.1041667   0.2886751   0.0000000), wk =   0.0026042
        k(  431) = (   0.1041667   0.3007033   0.0000000), wk =   0.0026042
        k(  432) = (   0.1041667   0.3127314   0.0000000), wk =   0.0026042
        k(  433) = (   0.1041667   0.3247595   0.0000000), wk =   0.0026042
        k(  434) = (   0.1041667   0.3367877   0.0000000), wk =   0.0026042
        k(  435) = (   0.1041667   0.3488158   0.0000000), wk =   0.0026042
        k(  436) = (   0.1041667   0.3608439   0.0000000), wk =   0.0026042
        k(  437) = (   0.1041667   0.3728720   0.0000000), wk =   0.0026042
        k(  438) = (   0.1041667   0.3849002   0.0000000), wk =   0.0026042
        k(  439) = (   0.1041667   0.3969283   0.0000000), wk =   0.0026042
        k(  440) = (   0.1041667   0.4089564   0.0000000), wk =   0.0026042
        k(  441) = (   0.1041667   0.4209846   0.0000000), wk =   0.0026042
        k(  442) = (   0.1041667   0.4330127   0.0000000), wk =   0.0026042
        k(  443) = (   0.1041667   0.4450408   0.0000000), wk =   0.0026042
        k(  444) = (   0.1041667   0.4570690   0.0000000), wk =   0.0026042
        k(  445) = (   0.1041667   0.4690971   0.0000000), wk =   0.0026042
        k(  446) = (   0.1041667   0.4811252   0.0000000), wk =   0.0026042
        k(  447) = (   0.1041667   0.4931534   0.0000000), wk =   0.0026042
        k(  448) = (   0.1041667   0.5051815   0.0000000), wk =   0.0026042
        k(  449) = (   0.1041667   0.5172096   0.0000000), wk =   0.0026042
        k(  450) = (   0.1041667   0.5292377   0.0000000), wk =   0.0026042
        k(  451) = (   0.1041667   0.5412659   0.0000000), wk =   0.0026042
        k(  452) = (   0.1041667   0.5532940   0.0000000), wk =   0.0026042
        k(  453) = (   0.1041667   0.5653221   0.0000000), wk =   0.0026042
        k(  454) = (   0.1041667   0.5773503   0.0000000), wk =   0.0013021
        k(  455) = (   0.1145833   0.1984642   0.0000000), wk =   0.0013021
        k(  456) = (   0.1145833   0.2104923   0.0000000), wk =   0.0026042
        k(  457) = (   0.1145833   0.2225204   0.0000000), wk =   0.0026042
        k(  458) = (   0.1145833   0.2345485   0.0000000), wk =   0.0026042
        k(  459) = (   0.1145833   0.2465767   0.0000000), wk =   0.0026042
        k(  460) = (   0.1145833   0.2586048   0.0000000), wk =   0.0026042
        k(  461) = (   0.1145833   0.2706329   0.0000000), wk =   0.0026042
        k(  462) = (   0.1145833   0.2826611   0.0000000), wk =   0.0026042
        k(  463) = (   0.1145833   0.2946892   0.0000000), wk =   0.0026042
        k(  464) = (   0.1145833   0.3067173   0.0000000), wk =   0.0026042
        k(  465) = (   0.1145833   0.3187455   0.0000000), wk =   0.0026042
        k(  466) = (   0.1145833   0.3307736   0.0000000), wk =   0.0026042
        k(  467) = (   0.1145833   0.3428017   0.0000000), wk =   0.0026042
        k(  468) = (   0.1145833   0.3548299   0.0000000), wk =   0.0026042
        k(  469) = (   0.1145833   0.3668580   0.0000000), wk =   0.0026042
        k(  470) = (   0.1145833   0.3788861   0.0000000), wk =   0.0026042
        k(  471) = (   0.1145833   0.3909142   0.0000000), wk =   0.0026042
        k(  472) = (   0.1145833   0.4029424   0.0000000), wk =   0.0026042
        k(  473) = (   0.1145833   0.4149705   0.0000000), wk =   0.0026042
        k(  474) = (   0.1145833   0.4269986   0.0000000), wk =   0.0026042
        k(  475) = (   0.1145833   0.4390268   0.0000000), wk =   0.0026042
        k(  476) = (   0.1145833   0.4510549   0.0000000), wk =   0.0026042
        k(  477) = (   0.1145833   0.4630830   0.0000000), wk =   0.0026042
        k(  478) = (   0.1145833   0.4751112   0.0000000), wk =   0.0026042
        k(  479) = (   0.1145833   0.4871393   0.0000000), wk =   0.0026042
        k(  480) = (   0.1145833   0.4991674   0.0000000), wk =   0.0026042
        k(  481) = (   0.1145833   0.5111956   0.0000000), wk =   0.0026042
        k(  482) = (   0.1145833   0.5232237   0.0000000), wk =   0.0026042
        k(  483) = (   0.1145833   0.5352518   0.0000000), wk =   0.0026042
        k(  484) = (   0.1145833   0.5472799   0.0000000), wk =   0.0026042
        k(  485) = (   0.1145833   0.5593081   0.0000000), wk =   0.0026042
        k(  486) = (   0.1145833   0.5713362   0.0000000), wk =   0.0026042
        k(  487) = (   0.1250000   0.2165064   0.0000000), wk =   0.0013021
        k(  488) = (   0.1250000   0.2285345   0.0000000), wk =   0.0026042
        k(  489) = (   0.1250000   0.2405626   0.0000000), wk =   0.0026042
        k(  490) = (   0.1250000   0.2525907   0.0000000), wk =   0.0026042
        k(  491) = (   0.1250000   0.2646189   0.0000000), wk =   0.0026042
        k(  492) = (   0.1250000   0.2766470   0.0000000), wk =   0.0026042
        k(  493) = (   0.1250000   0.2886751   0.0000000), wk =   0.0026042
        k(  494) = (   0.1250000   0.3007033   0.0000000), wk =   0.0026042
        k(  495) = (   0.1250000   0.3127314   0.0000000), wk =   0.0026042
        k(  496) = (   0.1250000   0.3247595   0.0000000), wk =   0.0026042
        k(  497) = (   0.1250000   0.3367877   0.0000000), wk =   0.0026042
        k(  498) = (   0.1250000   0.3488158   0.0000000), wk =   0.0026042
        k(  499) = (   0.1250000   0.3608439   0.0000000), wk =   0.0026042
        k(  500) = (   0.1250000   0.3728720   0.0000000), wk =   0.0026042
        k(  501) = (   0.1250000   0.3849002   0.0000000), wk =   0.0026042
        k(  502) = (   0.1250000   0.3969283   0.0000000), wk =   0.0026042
        k(  503) = (   0.1250000   0.4089564   0.0000000), wk =   0.0026042
        k(  504) = (   0.1250000   0.4209846   0.0000000), wk =   0.0026042
        k(  505) = (   0.1250000   0.4330127   0.0000000), wk =   0.0026042
        k(  506) = (   0.1250000   0.4450408   0.0000000), wk =   0.0026042
        k(  507) = (   0.1250000   0.4570690   0.0000000), wk =   0.0026042
        k(  508) = (   0.1250000   0.4690971   0.0000000), wk =   0.0026042
        k(  509) = (   0.1250000   0.4811252   0.0000000), wk =   0.0026042
        k(  510) = (   0.1250000   0.4931534   0.0000000), wk =   0.0026042
        k(  511) = (   0.1250000   0.5051815   0.0000000), wk =   0.0026042
        k(  512) = (   0.1250000   0.5172096   0.0000000), wk =   0.0026042
        k(  513) = (   0.1250000   0.5292377   0.0000000), wk =   0.0026042
        k(  514) = (   0.1250000   0.5412659   0.0000000), wk =   0.0026042
        k(  515) = (   0.1250000   0.5532940   0.0000000), wk =   0.0026042
        k(  516) = (   0.1250000   0.5653221   0.0000000), wk =   0.0026042
        k(  517) = (   0.1250000   0.5773503   0.0000000), wk =   0.0013021
        k(  518) = (   0.1354167   0.2345485   0.0000000), wk =   0.0013021
        k(  519) = (   0.1354167   0.2465767   0.0000000), wk =   0.0026042
        k(  520) = (   0.1354167   0.2586048   0.0000000), wk =   0.0026042
        k(  521) = (   0.1354167   0.2706329   0.0000000), wk =   0.0026042
        k(  522) = (   0.1354167   0.2826611   0.0000000), wk =   0.0026042
        k(  523) = (   0.1354167   0.2946892   0.0000000), wk =   0.0026042
        k(  524) = (   0.1354167   0.3067173   0.0000000), wk =   0.0026042
        k(  525) = (   0.1354167   0.3187455   0.0000000), wk =   0.0026042
        k(  526) = (   0.1354167   0.3307736   0.0000000), wk =   0.0026042
        k(  527) = (   0.1354167   0.3428017   0.0000000), wk =   0.0026042
        k(  528) = (   0.1354167   0.3548299   0.0000000), wk =   0.0026042
        k(  529) = (   0.1354167   0.3668580   0.0000000), wk =   0.0026042
        k(  530) = (   0.1354167   0.3788861   0.0000000), wk =   0.0026042
        k(  531) = (   0.1354167   0.3909142   0.0000000), wk =   0.0026042
        k(  532) = (   0.1354167   0.4029424   0.0000000), wk =   0.0026042
        k(  533) = (   0.1354167   0.4149705   0.0000000), wk =   0.0026042
        k(  534) = (   0.1354167   0.4269986   0.0000000), wk =   0.0026042
        k(  535) = (   0.1354167   0.4390268   0.0000000), wk =   0.0026042
        k(  536) = (   0.1354167   0.4510549   0.0000000), wk =   0.0026042
        k(  537) = (   0.1354167   0.4630830   0.0000000), wk =   0.0026042
        k(  538) = (   0.1354167   0.4751112   0.0000000), wk =   0.0026042
        k(  539) = (   0.1354167   0.4871393   0.0000000), wk =   0.0026042
        k(  540) = (   0.1354167   0.4991674   0.0000000), wk =   0.0026042
        k(  541) = (   0.1354167   0.5111956   0.0000000), wk =   0.0026042
        k(  542) = (   0.1354167   0.5232237   0.0000000), wk =   0.0026042
        k(  543) = (   0.1354167   0.5352518   0.0000000), wk =   0.0026042
        k(  544) = (   0.1354167   0.5472799   0.0000000), wk =   0.0026042
        k(  545) = (   0.1354167   0.5593081   0.0000000), wk =   0.0026042
        k(  546) = (   0.1354167   0.5713362   0.0000000), wk =   0.0026042
        k(  547) = (   0.1458333   0.2525907   0.0000000), wk =   0.0013021
        k(  548) = (   0.1458333   0.2646189   0.0000000), wk =   0.0026042
        k(  549) = (   0.1458333   0.2766470   0.0000000), wk =   0.0026042
        k(  550) = (   0.1458333   0.2886751   0.0000000), wk =   0.0026042
        k(  551) = (   0.1458333   0.3007033   0.0000000), wk =   0.0026042
        k(  552) = (   0.1458333   0.3127314   0.0000000), wk =   0.0026042
        k(  553) = (   0.1458333   0.3247595   0.0000000), wk =   0.0026042
        k(  554) = (   0.1458333   0.3367877   0.0000000), wk =   0.0026042
        k(  555) = (   0.1458333   0.3488158   0.0000000), wk =   0.0026042
        k(  556) = (   0.1458333   0.3608439   0.0000000), wk =   0.0026042
        k(  557) = (   0.1458333   0.3728720   0.0000000), wk =   0.0026042
        k(  558) = (   0.1458333   0.3849002   0.0000000), wk =   0.0026042
        k(  559) = (   0.1458333   0.3969283   0.0000000), wk =   0.0026042
        k(  560) = (   0.1458333   0.4089564   0.0000000), wk =   0.0026042
        k(  561) = (   0.1458333   0.4209846   0.0000000), wk =   0.0026042
        k(  562) = (   0.1458333   0.4330127   0.0000000), wk =   0.0026042
        k(  563) = (   0.1458333   0.4450408   0.0000000), wk =   0.0026042
        k(  564) = (   0.1458333   0.4570690   0.0000000), wk =   0.0026042
        k(  565) = (   0.1458333   0.4690971   0.0000000), wk =   0.0026042
        k(  566) = (   0.1458333   0.4811252   0.0000000), wk =   0.0026042
        k(  567) = (   0.1458333   0.4931534   0.0000000), wk =   0.0026042
        k(  568) = (   0.1458333   0.5051815   0.0000000), wk =   0.0026042
        k(  569) = (   0.1458333   0.5172096   0.0000000), wk =   0.0026042
        k(  570) = (   0.1458333   0.5292377   0.0000000), wk =   0.0026042
        k(  571) = (   0.1458333   0.5412659   0.0000000), wk =   0.0026042
        k(  572) = (   0.1458333   0.5532940   0.0000000), wk =   0.0026042
        k(  573) = (   0.1458333   0.5653221   0.0000000), wk =   0.0026042
        k(  574) = (   0.1458333   0.5773503   0.0000000), wk =   0.0013021
        k(  575) = (   0.1562500   0.2706329   0.0000000), wk =   0.0013021
        k(  576) = (   0.1562500   0.2826611   0.0000000), wk =   0.0026042
        k(  577) = (   0.1562500   0.2946892   0.0000000), wk =   0.0026042
        k(  578) = (   0.1562500   0.3067173   0.0000000), wk =   0.0026042
        k(  579) = (   0.1562500   0.3187455   0.0000000), wk =   0.0026042
        k(  580) = (   0.1562500   0.3307736   0.0000000), wk =   0.0026042
        k(  581) = (   0.1562500   0.3428017   0.0000000), wk =   0.0026042
        k(  582) = (   0.1562500   0.3548299   0.0000000), wk =   0.0026042
        k(  583) = (   0.1562500   0.3668580   0.0000000), wk =   0.0026042
        k(  584) = (   0.1562500   0.3788861   0.0000000), wk =   0.0026042
        k(  585) = (   0.1562500   0.3909142   0.0000000), wk =   0.0026042
        k(  586) = (   0.1562500   0.4029424   0.0000000), wk =   0.0026042
        k(  587) = (   0.1562500   0.4149705   0.0000000), wk =   0.0026042
        k(  588) = (   0.1562500   0.4269986   0.0000000), wk =   0.0026042
        k(  589) = (   0.1562500   0.4390268   0.0000000), wk =   0.0026042
        k(  590) = (   0.1562500   0.4510549   0.0000000), wk =   0.0026042
        k(  591) = (   0.1562500   0.4630830   0.0000000), wk =   0.0026042
        k(  592) = (   0.1562500   0.4751112   0.0000000), wk =   0.0026042
        k(  593) = (   0.1562500   0.4871393   0.0000000), wk =   0.0026042
        k(  594) = (   0.1562500   0.4991674   0.0000000), wk =   0.0026042
        k(  595) = (   0.1562500   0.5111956   0.0000000), wk =   0.0026042
        k(  596) = (   0.1562500   0.5232237   0.0000000), wk =   0.0026042
        k(  597) = (   0.1562500   0.5352518   0.0000000), wk =   0.0026042
        k(  598) = (   0.1562500   0.5472799   0.0000000), wk =   0.0026042
        k(  599) = (   0.1562500   0.5593081   0.0000000), wk =   0.0026042
        k(  600) = (   0.1562500   0.5713362   0.0000000), wk =   0.0026042
        k(  601) = (   0.1666667   0.2886751   0.0000000), wk =   0.0013021
        k(  602) = (   0.1666667   0.3007033   0.0000000), wk =   0.0026042
        k(  603) = (   0.1666667   0.3127314   0.0000000), wk =   0.0026042
        k(  604) = (   0.1666667   0.3247595   0.0000000), wk =   0.0026042
        k(  605) = (   0.1666667   0.3367877   0.0000000), wk =   0.0026042
        k(  606) = (   0.1666667   0.3488158   0.0000000), wk =   0.0026042
        k(  607) = (   0.1666667   0.3608439   0.0000000), wk =   0.0026042
        k(  608) = (   0.1666667   0.3728720   0.0000000), wk =   0.0026042
        k(  609) = (   0.1666667   0.3849002   0.0000000), wk =   0.0026042
        k(  610) = (   0.1666667   0.3969283   0.0000000), wk =   0.0026042
        k(  611) = (   0.1666667   0.4089564   0.0000000), wk =   0.0026042
        k(  612) = (   0.1666667   0.4209846   0.0000000), wk =   0.0026042
        k(  613) = (   0.1666667   0.4330127   0.0000000), wk =   0.0026042
        k(  614) = (   0.1666667   0.4450408   0.0000000), wk =   0.0026042
        k(  615) = (   0.1666667   0.4570690   0.0000000), wk =   0.0026042
        k(  616) = (   0.1666667   0.4690971   0.0000000), wk =   0.0026042
        k(  617) = (   0.1666667   0.4811252   0.0000000), wk =   0.0026042
        k(  618) = (   0.1666667   0.4931534   0.0000000), wk =   0.0026042
        k(  619) = (   0.1666667   0.5051815   0.0000000), wk =   0.0026042
        k(  620) = (   0.1666667   0.5172096   0.0000000), wk =   0.0026042
        k(  621) = (   0.1666667   0.5292377   0.0000000), wk =   0.0026042
        k(  622) = (   0.1666667   0.5412659   0.0000000), wk =   0.0026042
        k(  623) = (   0.1666667   0.5532940   0.0000000), wk =   0.0026042
        k(  624) = (   0.1666667   0.5653221   0.0000000), wk =   0.0026042
        k(  625) = (   0.1666667   0.5773503   0.0000000), wk =   0.0013021
        k(  626) = (   0.1770833   0.3067173   0.0000000), wk =   0.0013021
        k(  627) = (   0.1770833   0.3187455   0.0000000), wk =   0.0026042
        k(  628) = (   0.1770833   0.3307736   0.0000000), wk =   0.0026042
        k(  629) = (   0.1770833   0.3428017   0.0000000), wk =   0.0026042
        k(  630) = (   0.1770833   0.3548299   0.0000000), wk =   0.0026042
        k(  631) = (   0.1770833   0.3668580   0.0000000), wk =   0.0026042
        k(  632) = (   0.1770833   0.3788861   0.0000000), wk =   0.0026042
        k(  633) = (   0.1770833   0.3909142   0.0000000), wk =   0.0026042
        k(  634) = (   0.1770833   0.4029424   0.0000000), wk =   0.0026042
        k(  635) = (   0.1770833   0.4149705   0.0000000), wk =   0.0026042
        k(  636) = (   0.1770833   0.4269986   0.0000000), wk =   0.0026042
        k(  637) = (   0.1770833   0.4390268   0.0000000), wk =   0.0026042
        k(  638) = (   0.1770833   0.4510549   0.0000000), wk =   0.0026042
        k(  639) = (   0.1770833   0.4630830   0.0000000), wk =   0.0026042
        k(  640) = (   0.1770833   0.4751112   0.0000000), wk =   0.0026042
        k(  641) = (   0.1770833   0.4871393   0.0000000), wk =   0.0026042
        k(  642) = (   0.1770833   0.4991674   0.0000000), wk =   0.0026042
        k(  643) = (   0.1770833   0.5111956   0.0000000), wk =   0.0026042
        k(  644) = (   0.1770833   0.5232237   0.0000000), wk =   0.0026042
        k(  645) = (   0.1770833   0.5352518   0.0000000), wk =   0.0026042
        k(  646) = (   0.1770833   0.5472799   0.0000000), wk =   0.0026042
        k(  647) = (   0.1770833   0.5593081   0.0000000), wk =   0.0026042
        k(  648) = (   0.1770833   0.5713362   0.0000000), wk =   0.0026042
        k(  649) = (   0.1875000   0.3247595   0.0000000), wk =   0.0013021
        k(  650) = (   0.1875000   0.3367877   0.0000000), wk =   0.0026042
        k(  651) = (   0.1875000   0.3488158   0.0000000), wk =   0.0026042
        k(  652) = (   0.1875000   0.3608439   0.0000000), wk =   0.0026042
        k(  653) = (   0.1875000   0.3728720   0.0000000), wk =   0.0026042
        k(  654) = (   0.1875000   0.3849002   0.0000000), wk =   0.0026042
        k(  655) = (   0.1875000   0.3969283   0.0000000), wk =   0.0026042
        k(  656) = (   0.1875000   0.4089564   0.0000000), wk =   0.0026042
        k(  657) = (   0.1875000   0.4209846   0.0000000), wk =   0.0026042
        k(  658) = (   0.1875000   0.4330127   0.0000000), wk =   0.0026042
        k(  659) = (   0.1875000   0.4450408   0.0000000), wk =   0.0026042
        k(  660) = (   0.1875000   0.4570690   0.0000000), wk =   0.0026042
        k(  661) = (   0.1875000   0.4690971   0.0000000), wk =   0.0026042
        k(  662) = (   0.1875000   0.4811252   0.0000000), wk =   0.0026042
        k(  663) = (   0.1875000   0.4931534   0.0000000), wk =   0.0026042
        k(  664) = (   0.1875000   0.5051815   0.0000000), wk =   0.0026042
        k(  665) = (   0.1875000   0.5172096   0.0000000), wk =   0.0026042
        k(  666) = (   0.1875000   0.5292377   0.0000000), wk =   0.0026042
        k(  667) = (   0.1875000   0.5412659   0.0000000), wk =   0.0026042
        k(  668) = (   0.1875000   0.5532940   0.0000000), wk =   0.0026042
        k(  669) = (   0.1875000   0.5653221   0.0000000), wk =   0.0026042
        k(  670) = (   0.1875000   0.5773503   0.0000000), wk =   0.0013021
        k(  671) = (   0.1979167   0.3428017   0.0000000), wk =   0.0013021
        k(  672) = (   0.1979167   0.3548299   0.0000000), wk =   0.0026042
        k(  673) = (   0.1979167   0.3668580   0.0000000), wk =   0.0026042
        k(  674) = (   0.1979167   0.3788861   0.0000000), wk =   0.0026042
        k(  675) = (   0.1979167   0.3909142   0.0000000), wk =   0.0026042
        k(  676) = (   0.1979167   0.4029424   0.0000000), wk =   0.0026042
        k(  677) = (   0.1979167   0.4149705   0.0000000), wk =   0.0026042
        k(  678) = (   0.1979167   0.4269986   0.0000000), wk =   0.0026042
        k(  679) = (   0.1979167   0.4390268   0.0000000), wk =   0.0026042
        k(  680) = (   0.1979167   0.4510549   0.0000000), wk =   0.0026042
        k(  681) = (   0.1979167   0.4630830   0.0000000), wk =   0.0026042
        k(  682) = (   0.1979167   0.4751112   0.0000000), wk =   0.0026042
        k(  683) = (   0.1979167   0.4871393   0.0000000), wk =   0.0026042
        k(  684) = (   0.1979167   0.4991674   0.0000000), wk =   0.0026042
        k(  685) = (   0.1979167   0.5111956   0.0000000), wk =   0.0026042
        k(  686) = (   0.1979167   0.5232237   0.0000000), wk =   0.0026042
        k(  687) = (   0.1979167   0.5352518   0.0000000), wk =   0.0026042
        k(  688) = (   0.1979167   0.5472799   0.0000000), wk =   0.0026042
        k(  689) = (   0.1979167   0.5593081   0.0000000), wk =   0.0026042
        k(  690) = (   0.1979167   0.5713362   0.0000000), wk =   0.0026042
        k(  691) = (   0.2083333   0.3608439   0.0000000), wk =   0.0013021
        k(  692) = (   0.2083333   0.3728720   0.0000000), wk =   0.0026042
        k(  693) = (   0.2083333   0.3849002   0.0000000), wk =   0.0026042
        k(  694) = (   0.2083333   0.3969283   0.0000000), wk =   0.0026042
        k(  695) = (   0.2083333   0.4089564   0.0000000), wk =   0.0026042
        k(  696) = (   0.2083333   0.4209846   0.0000000), wk =   0.0026042
        k(  697) = (   0.2083333   0.4330127   0.0000000), wk =   0.0026042
        k(  698) = (   0.2083333   0.4450408   0.0000000), wk =   0.0026042
        k(  699) = (   0.2083333   0.4570690   0.0000000), wk =   0.0026042
        k(  700) = (   0.2083333   0.4690971   0.0000000), wk =   0.0026042
        k(  701) = (   0.2083333   0.4811252   0.0000000), wk =   0.0026042
        k(  702) = (   0.2083333   0.4931534   0.0000000), wk =   0.0026042
        k(  703) = (   0.2083333   0.5051815   0.0000000), wk =   0.0026042
        k(  704) = (   0.2083333   0.5172096   0.0000000), wk =   0.0026042
        k(  705) = (   0.2083333   0.5292377   0.0000000), wk =   0.0026042
        k(  706) = (   0.2083333   0.5412659   0.0000000), wk =   0.0026042
        k(  707) = (   0.2083333   0.5532940   0.0000000), wk =   0.0026042
        k(  708) = (   0.2083333   0.5653221   0.0000000), wk =   0.0026042
        k(  709) = (   0.2083333   0.5773503   0.0000000), wk =   0.0013021
        k(  710) = (   0.2187500   0.3788861   0.0000000), wk =   0.0013021
        k(  711) = (   0.2187500   0.3909142   0.0000000), wk =   0.0026042
        k(  712) = (   0.2187500   0.4029424   0.0000000), wk =   0.0026042
        k(  713) = (   0.2187500   0.4149705   0.0000000), wk =   0.0026042
        k(  714) = (   0.2187500   0.4269986   0.0000000), wk =   0.0026042
        k(  715) = (   0.2187500   0.4390268   0.0000000), wk =   0.0026042
        k(  716) = (   0.2187500   0.4510549   0.0000000), wk =   0.0026042
        k(  717) = (   0.2187500   0.4630830   0.0000000), wk =   0.0026042
        k(  718) = (   0.2187500   0.4751112   0.0000000), wk =   0.0026042
        k(  719) = (   0.2187500   0.4871393   0.0000000), wk =   0.0026042
        k(  720) = (   0.2187500   0.4991674   0.0000000), wk =   0.0026042
        k(  721) = (   0.2187500   0.5111956   0.0000000), wk =   0.0026042
        k(  722) = (   0.2187500   0.5232237   0.0000000), wk =   0.0026042
        k(  723) = (   0.2187500   0.5352518   0.0000000), wk =   0.0026042
        k(  724) = (   0.2187500   0.5472799   0.0000000), wk =   0.0026042
        k(  725) = (   0.2187500   0.5593081   0.0000000), wk =   0.0026042
        k(  726) = (   0.2187500   0.5713362   0.0000000), wk =   0.0026042
        k(  727) = (   0.2291667   0.3969283   0.0000000), wk =   0.0013021
        k(  728) = (   0.2291667   0.4089564   0.0000000), wk =   0.0026042
        k(  729) = (   0.2291667   0.4209846   0.0000000), wk =   0.0026042
        k(  730) = (   0.2291667   0.4330127   0.0000000), wk =   0.0026042
        k(  731) = (   0.2291667   0.4450408   0.0000000), wk =   0.0026042
        k(  732) = (   0.2291667   0.4570690   0.0000000), wk =   0.0026042
        k(  733) = (   0.2291667   0.4690971   0.0000000), wk =   0.0026042
        k(  734) = (   0.2291667   0.4811252   0.0000000), wk =   0.0026042
        k(  735) = (   0.2291667   0.4931534   0.0000000), wk =   0.0026042
        k(  736) = (   0.2291667   0.5051815   0.0000000), wk =   0.0026042
        k(  737) = (   0.2291667   0.5172096   0.0000000), wk =   0.0026042
        k(  738) = (   0.2291667   0.5292377   0.0000000), wk =   0.0026042
        k(  739) = (   0.2291667   0.5412659   0.0000000), wk =   0.0026042
        k(  740) = (   0.2291667   0.5532940   0.0000000), wk =   0.0026042
        k(  741) = (   0.2291667   0.5653221   0.0000000), wk =   0.0026042
        k(  742) = (   0.2291667   0.5773503   0.0000000), wk =   0.0013021
        k(  743) = (   0.2395833   0.4149705   0.0000000), wk =   0.0013021
        k(  744) = (   0.2395833   0.4269986   0.0000000), wk =   0.0026042
        k(  745) = (   0.2395833   0.4390268   0.0000000), wk =   0.0026042
        k(  746) = (   0.2395833   0.4510549   0.0000000), wk =   0.0026042
        k(  747) = (   0.2395833   0.4630830   0.0000000), wk =   0.0026042
        k(  748) = (   0.2395833   0.4751112   0.0000000), wk =   0.0026042
        k(  749) = (   0.2395833   0.4871393   0.0000000), wk =   0.0026042
        k(  750) = (   0.2395833   0.4991674   0.0000000), wk =   0.0026042
        k(  751) = (   0.2395833   0.5111956   0.0000000), wk =   0.0026042
        k(  752) = (   0.2395833   0.5232237   0.0000000), wk =   0.0026042
        k(  753) = (   0.2395833   0.5352518   0.0000000), wk =   0.0026042
        k(  754) = (   0.2395833   0.5472799   0.0000000), wk =   0.0026042
        k(  755) = (   0.2395833   0.5593081   0.0000000), wk =   0.0026042
        k(  756) = (   0.2395833   0.5713362   0.0000000), wk =   0.0026042
        k(  757) = (   0.2500000   0.4330127   0.0000000), wk =   0.0013021
        k(  758) = (   0.2500000   0.4450408   0.0000000), wk =   0.0026042
        k(  759) = (   0.2500000   0.4570690   0.0000000), wk =   0.0026042
        k(  760) = (   0.2500000   0.4690971   0.0000000), wk =   0.0026042
        k(  761) = (   0.2500000   0.4811252   0.0000000), wk =   0.0026042
        k(  762) = (   0.2500000   0.4931534   0.0000000), wk =   0.0026042
        k(  763) = (   0.2500000   0.5051815   0.0000000), wk =   0.0026042
        k(  764) = (   0.2500000   0.5172096   0.0000000), wk =   0.0026042
        k(  765) = (   0.2500000   0.5292377   0.0000000), wk =   0.0026042
        k(  766) = (   0.2500000   0.5412659   0.0000000), wk =   0.0026042
        k(  767) = (   0.2500000   0.5532940   0.0000000), wk =   0.0026042
        k(  768) = (   0.2500000   0.5653221   0.0000000), wk =   0.0026042
        k(  769) = (   0.2500000   0.5773503   0.0000000), wk =   0.0013021
        k(  770) = (   0.2604167   0.4510549   0.0000000), wk =   0.0013021
        k(  771) = (   0.2604167   0.4630830   0.0000000), wk =   0.0026042
        k(  772) = (   0.2604167   0.4751112   0.0000000), wk =   0.0026042
        k(  773) = (   0.2604167   0.4871393   0.0000000), wk =   0.0026042
        k(  774) = (   0.2604167   0.4991674   0.0000000), wk =   0.0026042
        k(  775) = (   0.2604167   0.5111956   0.0000000), wk =   0.0026042
        k(  776) = (   0.2604167   0.5232237   0.0000000), wk =   0.0026042
        k(  777) = (   0.2604167   0.5352518   0.0000000), wk =   0.0026042
        k(  778) = (   0.2604167   0.5472799   0.0000000), wk =   0.0026042
        k(  779) = (   0.2604167   0.5593081   0.0000000), wk =   0.0026042
        k(  780) = (   0.2604167   0.5713362   0.0000000), wk =   0.0026042
        k(  781) = (   0.2708333   0.4690971   0.0000000), wk =   0.0013021
        k(  782) = (   0.2708333   0.4811252   0.0000000), wk =   0.0026042
        k(  783) = (   0.2708333   0.4931534   0.0000000), wk =   0.0026042
        k(  784) = (   0.2708333   0.5051815   0.0000000), wk =   0.0026042
        k(  785) = (   0.2708333   0.5172096   0.0000000), wk =   0.0026042
        k(  786) = (   0.2708333   0.5292377   0.0000000), wk =   0.0026042
        k(  787) = (   0.2708333   0.5412659   0.0000000), wk =   0.0026042
        k(  788) = (   0.2708333   0.5532940   0.0000000), wk =   0.0026042
        k(  789) = (   0.2708333   0.5653221   0.0000000), wk =   0.0026042
        k(  790) = (   0.2708333   0.5773503   0.0000000), wk =   0.0013021
        k(  791) = (   0.2812500   0.4871393   0.0000000), wk =   0.0013021
        k(  792) = (   0.2812500   0.4991674   0.0000000), wk =   0.0026042
        k(  793) = (   0.2812500   0.5111956   0.0000000), wk =   0.0026042
        k(  794) = (   0.2812500   0.5232237   0.0000000), wk =   0.0026042
        k(  795) = (   0.2812500   0.5352518   0.0000000), wk =   0.0026042
        k(  796) = (   0.2812500   0.5472799   0.0000000), wk =   0.0026042
        k(  797) = (   0.2812500   0.5593081   0.0000000), wk =   0.0026042
        k(  798) = (   0.2812500   0.5713362   0.0000000), wk =   0.0026042
        k(  799) = (   0.2916667   0.5051815   0.0000000), wk =   0.0013021
        k(  800) = (   0.2916667   0.5172096   0.0000000), wk =   0.0026042
        k(  801) = (   0.2916667   0.5292377   0.0000000), wk =   0.0026042
        k(  802) = (   0.2916667   0.5412659   0.0000000), wk =   0.0026042
[...]

     occupation numbers 
     1.0000   1.0000   1.0000   1.0000   0.0000   0.0000   0.0000   0.0000
     0.0000   0.0000   0.0000   0.0000   0.0000   0.0000   0.0000   0.0000

          k = 0.2604 0.5353 0.0000 (  4225 PWs)   bands (ev):

   -16.0103 -14.3760 -12.2029  -3.5388  -1.2159   8.4746   9.1718  10.0572
    10.3460  10.4605  10.8728  11.5355  11.6581  12.6687  12.7390  13.3669

     occupation numbers 
     1.0000   1.0000   1.0000   1.0000   0.0000   0.0000   0.0000   0.0000
     0.0000   0.0000   0.0000   0.0000   0.0000   0.0000   0.0000   0.0000

          k = 0.2604 0.5473 0.0000 (  4229 PWs)   bands (ev):

   -15.8479 -14.5395 -12.2355  -3.4140  -1.3455   8.4830   9.4367  10.0464
    10.6396  10.7354  10.7577  11.7695  11.9412  12.3316  12.4608  13.2188

     occupation numbers 
     1.0000   1.0000   1.0000   1.0000   0.0000   0.0000   0.0000   0.0000
     0.0000   0.0000   0.0000   0.0000   0.0000   0.0000   0.0000   0.0000

          k = 0.2604 0.5593 0.0000 (  4235 PWs)   bands (ev):

   -15.7104 -14.6782 -12.2569  -3.3209  -1.4418   8.4863   9.6874  10.0351
    10.5553  10.9925  11.0118  11.8780  11.9855  12.2303  12.3086  13.0277

     occupation numbers 
     1.0000   1.0000   1.0000   1.0000   0.0000   0.0000   0.0000   0.0000
     0.0000   0.0000   0.0000   0.0000   0.0000   0.0000   0.0000   0.0000

          k = 0.2604 0.5713 0.0000 (  4241 PWs)   bands (ev):

   -15.6248 -14.7644 -12.2675  -3.2705  -1.4939   8.4873   9.8940  10.0139
    10.4031  11.2533  11.3176  11.6510  11.7350  12.4092  12.4906  12.8093

     occupation numbers 
     1.0000   1.0000   1.0000   1.0000   0.0000   0.0000   0.0000   0.0000
     0.0000   0.0000   0.0000   0.0000   0.0000   0.0000   0.0000   0.0000

          k = 0.2708 0.4691 0.0000 (  4235 PWs)   bands (ev):

   -16.9041 -13.4849 -11.8714  -4.3704  -0.3322   7.8282   8.1566   8.8551
     9.2980  10.1514  10.4593  10.4685  10.4774  12.2676  12.4678  14.4684

     occupation numbers 
     1.0000   1.0000   1.0000   1.0000   0.0000   0.0000   0.0000   0.0000
     0.0000   0.0000   0.0000   0.0000   0.0000   0.0000   0.0000   0.0000

          k = 0.2708 0.4811 0.0000 (  4227 PWs)   bands (ev):

   -16.7271 -13.6304 -11.9947  -4.1906  -0.5220   8.0880   8.2683   9.1347
     9.4924  10.3399  10.4933  10.6284  10.6915  12.4897  12.7233  14.1917

     occupation numbers 
     1.0000   1.0000   1.0000   1.0000   0.0000   0.0000   0.0000   0.0000
     0.0000   0.0000   0.0000   0.0000   0.0000   0.0000   0.0000   0.0000

          k = 0.2708 0.4932 0.0000 (  4225 PWs)   bands (ev):

   -16.5485 -13.7839 -12.1015  -4.0125  -0.7088   8.3458   8.3516   9.4209
     9.7022  10.3552  10.6804  10.8205  10.8981  12.7221  12.9771  13.8897

     occupation numbers 
     1.0000   1.0000   1.0000   1.0000   0.0000   0.0000   0.0000   0.0000
     0.0000   0.0000   0.0000   0.0000   0.0000   0.0000   0.0000   0.0000

          k = 0.2708 0.5052 0.0000 (  4227 PWs)   bands (ev):

   -16.3691 -13.9443 -12.1916  -3.8378  -0.8908   8.3933   8.6180   9.7135
     9.9310  10.3343  10.8488  11.0391  11.1194  12.9529  13.2161  13.6007

     occupation numbers 
     1.0000   1.0000   1.0000   1.0000   0.0000   0.0000   0.0000   0.0000
     0.0000   0.0000   0.0000   0.0000   0.0000   0.0000   0.0000   0.0000

          k = 0.2708 0.5172 0.0000 (  4227 PWs)   bands (ev):

   -16.1903 -14.1094 -12.2659  -3.6693  -1.0655   8.4183   8.8861  10.0112
    10.1784  10.3132  10.9331  11.2778  11.3730  13.1251  13.2489  13.4777

     occupation numbers 
     1.0000   1.0000   1.0000   1.0000   0.0000   0.0000   0.0000   0.0000
     0.0000   0.0000   0.0000   0.0000   0.0000   0.0000   0.0000   0.0000

          k = 0.2708 0.5292 0.0000 (  4229 PWs)   bands (ev):

   -16.0145 -14.2759 -12.3250  -3.5111  -1.2287   8.4287   9.1538  10.2672
    10.3413  10.4416  10.9346  11.5294  11.6456  12.9519  13.0024  13.4844

     occupation numbers 
     1.0000   1.0000   1.0000   1.0000   0.0000   0.0000   0.0000   0.0000
     0.0000   0.0000   0.0000   0.0000   0.0000   0.0000   0.0000   0.0000

          k = 0.2708 0.5413 0.0000 (  4232 PWs)   bands (ev):

   -15.8459 -14.4384 -12.3698  -3.3693  -1.3744   8.4309   9.4181  10.2654
    10.6285  10.7169  10.8708  11.7820  11.9248  12.6250  12.7175  13.3511

     occupation numbers 
     1.0000   1.0000   1.0000   1.0000   0.0000   0.0000   0.0000   0.0000
     0.0000   0.0000   0.0000   0.0000   0.0000   0.0000   0.0000   0.0000

          k = 0.2708 0.5533 0.0000 (  4231 PWs)   bands (ev):

   -15.6933 -14.5873 -12.4013  -3.2531  -1.4933   8.4295   9.6736  10.2443
    10.7226  10.9715  10.9986  11.9893  12.1932  12.3002  12.4675  13.1937

     occupation numbers 
     1.0000   1.0000   1.0000   1.0000   0.0000   0.0000   0.0000   0.0000
     0.0000   0.0000   0.0000   0.0000   0.0000   0.0000   0.0000   0.0000

          k = 0.2708 0.5653 0.0000 (  4237 PWs)   bands (ev):

   -15.5762 -14.7025 -12.4199  -3.1749  -1.5731   8.4276   9.9088  10.2039
    10.5958  11.2719  11.2878  11.9492  11.9505  12.4680  12.4748  13.0085

     occupation numbers 
     1.0000   1.0000   1.0000   1.0000   0.0000   0.0000   0.0000   0.0000
     0.0000   0.0000   0.0000   0.0000   0.0000   0.0000   0.0000   0.0000

          k = 0.2708 0.5774 0.0000 (  4237 PWs)   bands (ev):

   -15.5294 -14.7488 -12.4260  -3.1470  -1.6016   8.4267  10.0818  10.1157
    10.5310  11.4385  11.6031  11.6295  11.8127  12.5759  12.6529  12.8574

     occupation numbers 
     1.0000   1.0000   1.0000   1.0000   0.0000   0.0000   0.0000   0.0000
     0.0000   0.0000   0.0000   0.0000   0.0000   0.0000   0.0000   0.0000

          k = 0.2813 0.4871 0.0000 (  4221 PWs)   bands (ev):

   -16.5504 -13.7614 -12.1261  -4.0113  -0.7069   8.3384   8.3483   9.4175
     9.6980  10.5444  10.5632  10.8172  10.8566  12.7225  12.9755  14.0989

     occupation numbers 
     1.0000   1.0000   1.0000   1.0000   0.0000   0.0000   0.0000   0.0000
     0.0000   0.0000   0.0000   0.0000   0.0000   0.0000   0.0000   0.0000

          k = 0.2813 0.4992 0.0000 (  4227 PWs)   bands (ev):

   -16.3724 -13.9008 -12.2400  -3.8337  -0.8892   8.3780   8.6115   9.7068
     9.9233  10.5306  10.7428  11.0336  11.1024  12.9611  13.2204  13.8404

     occupation numbers 
     1.0000   1.0000   1.0000   1.0000   0.0000   0.0000   0.0000   0.0000
     0.0000   0.0000   0.0000   0.0000   0.0000   0.0000   0.0000   0.0000

          k = 0.2813 0.5112 0.0000 (  4229 PWs)   bands (ev):

   -16.1943 -14.0478 -12.3362  -3.6598  -1.0669   8.3949   8.8765  10.0022
    10.1678  10.5063  10.8743  11.2712  11.3661  13.1865  13.4106  13.5896

     occupation numbers 
     1.0000   1.0000   1.0000   1.0000   0.0000   0.0000   0.0000   0.0000
     0.0000   0.0000   0.0000   0.0000   0.0000   0.0000   0.0000   0.0000

          k = 0.2813 0.5232 0.0000 (  4225 PWs)   bands (ev):

   -16.0177 -14.2002 -12.4148  -3.4925  -1.2372   8.3977   9.1414  10.3010
    10.4288  10.4842  10.9434  11.5238  11.6388  13.2200  13.2456  13.6081

     occupation numbers 
     1.0000   1.0000   1.0000   1.0000   0.0000   0.0000   0.0000   0.0000
     0.0000   0.0000   0.0000   0.0000   0.0000   0.0000   0.0000   0.0000

          k = 0.2813 0.5353 0.0000 (  4228 PWs)   bands (ev):

   -15.8456 -14.3546 -12.4764  -3.3365  -1.3955   8.3929   9.4037  10.4503
    10.6143  10.7028  10.9482  11.7839  11.9154  12.9130  12.9896  13.4848

     occupation numbers 
     1.0000   1.0000   1.0000   1.0000   0.0000   0.0000   0.0000   0.0000
     0.0000   0.0000   0.0000   0.0000   0.0000   0.0000   0.0000   0.0000

          k = 0.2813 0.5473 0.0000 (  4234 PWs)   bands (ev):

   -15.6835 -14.5043 -12.5216  -3.1995  -1.5343   8.3857   9.6589  10.4248
    10.8390  10.9752  10.9859  12.0326  12.1890  12.5897  12.7000  13.3317

     occupation numbers 
     1.0000   1.0000   1.0000   1.0000   0.0000   0.0000   0.0000   0.0000
     0.0000   0.0000   0.0000   0.0000   0.0000   0.0000   0.0000   0.0000

          k = 0.2813 0.5593 0.0000 (  4238 PWs)   bands (ev):

   -15.5442 -14.6359 -12.5513  -3.0932  -1.6417   8.3792   9.8994  10.3801
    10.7749  11.2665  11.2706  12.1525  12.2465  12.4657  12.5431  13.1776

     occupation numbers 
     1.0000   1.0000   1.0000   1.0000   0.0000   0.0000   0.0000   0.0000
     0.0000   0.0000   0.0000   0.0000   0.0000   0.0000   0.0000   0.0000

          k = 0.2813 0.5713 0.0000 (  4239 PWs)   bands (ev):

   -15.4553 -14.7212 -12.5660  -3.0335  -1.7019   8.3755  10.1070  10.2933
    10.7051  11.5237  11.5890  11.9192  11.9895  12.6749  12.6891  13.0151

     occupation numbers 
     1.0000   1.0000   1.0000   1.0000   0.0000   0.0000   0.0000   0.0000
     0.0000   0.0000   0.0000   0.0000   0.0000   0.0000   0.0000   0.0000

          k = 0.2917 0.5052 0.0000 (  4223 PWs)   bands (ev):

   -16.1957 -14.0260 -12.3610  -3.6566  -1.0673   8.3871   8.8732   9.9989
    10.1642  10.6069  10.8195  11.2689  11.3633  13.2010  13.4417  13.7520

     occupation numbers 
     1.0000   1.0000   1.0000   1.0000   0.0000   0.0000   0.0000   0.0000
     0.0000   0.0000   0.0000   0.0000   0.0000   0.0000   0.0000   0.0000

          k = 0.2917 0.5172 0.0000 (  4219 PWs)   bands (ev):

   -16.0195 -14.1590 -12.4631  -3.4832  -1.2414   8.3820   9.1352  10.2965
    10.4223  10.6082  10.9188  11.5206  11.6358  13.4037  13.4639  13.6483

     occupation numbers 
     1.0000   1.0000   1.0000   1.0000   0.0000   0.0000   0.0000   0.0000
     0.0000   0.0000   0.0000   0.0000   0.0000   0.0000   0.0000   0.0000

          k = 0.2917 0.5292 0.0000 (  4227 PWs)   bands (ev):

   -15.8458 -14.2983 -12.5459  -3.3166  -1.4084   8.3698   9.3947  10.5759
    10.6113  10.6941  10.9822  11.7830  11.9113  13.1875  13.2608  13.6502

     occupation numbers 
     1.0000   1.0000   1.0000   1.0000   0.0000   0.0000   0.0000   0.0000
     0.0000   0.0000   0.0000   0.0000   0.0000   0.0000   0.0000   0.0000

          k = 0.2917 0.5413 0.0000 (  4232 PWs)   bands (ev):

   -15.6784 -14.4400 -12.6095  -3.1622  -1.5630   8.3559   9.6482  10.5596
    10.8778  10.9765  11.0198  12.0470  12.1840  12.8809  12.9628  13.4670

     occupation numbers 
     1.0000   1.0000   1.0000   1.0000   0.0000   0.0000   0.0000   0.0000
     0.0000   0.0000   0.0000   0.0000   0.0000   0.0000   0.0000   0.0000

          k = 0.2917 0.5533 0.0000 (  4232 PWs)   bands (ev):

   -15.5247 -14.5758 -12.6544  -3.0296  -1.6956   8.3437   9.8892  10.5177
    10.9183  11.2549  11.2648  12.2714  12.4351  12.5715  12.7018  13.3146

     occupation numbers 
     1.0000   1.0000   1.0000   1.0000   0.0000   0.0000   0.0000   0.0000
     0.0000   0.0000   0.0000   0.0000   0.0000   0.0000   0.0000   0.0000

          k = 0.2917 0.5653 0.0000 (  4238 PWs)   bands (ev):

   -15.4032 -14.6870 -12.6811  -2.9352  -1.7901   8.3355  10.1059  10.4452
    10.8706  11.5463  11.5703  12.2227  12.2245  12.6929  12.7206  13.1748

     occupation numbers 
     1.0000   1.0000   1.0000   1.0000   0.0000   0.0000   0.0000   0.0000
     0.0000   0.0000   0.0000   0.0000   0.0000   0.0000   0.0000   0.0000

          k = 0.2917 0.5774 0.0000 (  4243 PWs)   bands (ev):

   -15.3527 -14.7341 -12.6899  -2.9000  -1.8253   8.3326  10.2429  10.3617
    10.8472  11.7243  11.8793  11.9115  12.0692  12.8252  12.8619  13.0798

     occupation numbers 
     1.0000   1.0000   1.0000   1.0000   0.0000   0.0000   0.0000   0.0000
     0.0000   0.0000   0.0000   0.0000   0.0000   0.0000   0.0000   0.0000

          k = 0.3021 0.5232 0.0000 (  4223 PWs)   bands (ev):

   -15.8460 -14.2783 -12.5702  -3.3098  -1.4127   8.3621   9.3917  10.5944
    10.6397  10.6912  10.9886  11.7824  11.9103  13.4242  13.4661  13.4697

     occupation numbers 
     1.0000   1.0000   1.0000   1.0000   0.0000   0.0000   0.0000   0.0000
     0.0000   0.0000   0.0000   0.0000   0.0000   0.0000   0.0000   0.0000

          k = 0.3021 0.5353 0.0000 (  4220 PWs)   bands (ev):

   -15.6762 -14.4045 -12.6564  -3.1430  -1.5778   8.3408   9.6426  10.6333
    10.8814  10.9716  11.0578  12.0512  12.1826  13.1581  13.2104  13.4265

     occupation numbers 
     1.0000   1.0000   1.0000   1.0000   0.0000   0.0000   0.0000   0.0000
     0.0000   0.0000   0.0000   0.0000   0.0000   0.0000   0.0000   0.0000

          k = 0.3021 0.5473 0.0000 (  4228 PWs)   bands (ev):

   -15.5144 -14.5336 -12.7211  -2.9888  -1.7306   8.3220   9.8822  10.6058
    11.0085  11.2529  11.2600  12.3129  12.4429  12.8567  12.9262  13.3816

     occupation numbers 
     1.0000   1.0000   1.0000   1.0000   0.0000   0.0000   0.0000   0.0000
     0.0000   0.0000   0.0000   0.0000   0.0000   0.0000   0.0000   0.0000

          k = 0.3021 0.5593 0.0000 (  4237 PWs)   bands (ev):

   -15.3711 -14.6553 -12.7641  -2.8600  -1.8584   8.3082  10.1012  10.5545
    10.9977  11.5504  11.5590  12.4473  12.5183  12.7028  12.7666  13.2807

     occupation numbers 
     1.0000   1.0000   1.0000   1.0000   0.0000   0.0000   0.0000   0.0000
     0.0000   0.0000   0.0000   0.0000   0.0000   0.0000   0.0000   0.0000

          k = 0.3021 0.5713 0.0000 (  4237 PWs)   bands (ev):

   -15.2741 -14.7417 -12.7855  -2.7810  -1.9369   8.3009  10.2783  10.4736
    10.9746  11.8142  11.8785  12.2041  12.2577  12.8749  12.9462  13.1776

     occupation numbers 
     1.0000   1.0000   1.0000   1.0000   0.0000   0.0000   0.0000   0.0000
     0.0000   0.0000   0.0000   0.0000   0.0000   0.0000   0.0000   0.0000

          k = 0.3125 0.5413 0.0000 (  4229 PWs)   bands (ev):

   -15.5112 -14.5183 -12.7443  -2.9747  -1.7427   8.3147   9.8798  10.6362
    11.0382  11.2543  11.2583  12.3222  12.4439  13.0763  13.1064  13.1717

     occupation numbers 
     1.0000   1.0000   1.0000   1.0000   0.0000   0.0000   0.0000   0.0000
     0.0000   0.0000   0.0000   0.0000   0.0000   0.0000   0.0000   0.0000

          k = 0.3125 0.5533 0.0000 (  4231 PWs)   bands (ev):

   -15.3561 -14.6362 -12.8078  -2.8181  -1.8967   8.2943  10.0981  10.6120
    11.0669  11.5505  11.5543  12.5693  12.6728  12.8443  12.8619  13.1238

     occupation numbers 
     1.0000   1.0000   1.0000   1.0000   0.0000   0.0000   0.0000   0.0000
     0.0000   0.0000   0.0000   0.0000   0.0000   0.0000   0.0000   0.0000

          k = 0.3125 0.5653 0.0000 (  4241 PWs)   bands (ev):

   -15.2247 -14.7451 -12.8463  -2.6908  -2.0225   8.2814  10.2836  10.5608
    11.0611  11.8383  11.8698  12.5045  12.5084  12.8908  12.9108  13.0974

     occupation numbers 
     1.0000   1.0000   1.0000   1.0000   0.0000   0.0000   0.0000   0.0000
     0.0000   0.0000   0.0000   0.0000   0.0000   0.0000   0.0000   0.0000

          k = 0.3125 0.5774 0.0000 (  4247 PWs)   bands (ev):

   -15.1632 -14.7990 -12.8591  -2.6358  -2.0770   8.2770  10.3881  10.5057
    11.0540  12.0310  12.1718  12.2090  12.3246  12.9893  13.0644  13.0872

     occupation numbers 
     1.0000   1.0000   1.0000   1.0000   0.0000   0.0000   0.0000   0.0000
     0.0000   0.0000   0.0000   0.0000   0.0000   0.0000   0.0000   0.0000

          k = 0.3229 0.5593 0.0000 (  4239 PWs)   bands (ev):

   -15.2078 -14.7459 -12.8672  -2.6550  -2.0568   8.2749  10.2842  10.5920
    11.0917  11.8432  11.8669  12.7071  12.7881  12.7906  12.7924  12.9513

     occupation numbers 
     1.0000   1.0000   1.0000   1.0000   0.0000   0.0000   0.0000   0.0000
     0.0000   0.0000   0.0000   0.0000   0.0000   0.0000   0.0000   0.0000

          k = 0.3229 0.5713 0.0000 (  4243 PWs)   bands (ev):

   -15.0873 -14.8467 -12.8974  -2.5223  -2.1880   8.2648  10.4222  10.5475
    11.0953  12.1186  12.1828  12.4838  12.5000  12.8006  12.8825  13.0511

     occupation numbers 
     1.0000   1.0000   1.0000   1.0000  -0.0000   0.0000   0.0000   0.0000
     0.0000   0.0000   0.0000   0.0000   0.0000   0.0000   0.0000   0.0000

          k = 0.3333 0.5774 0.0000 (  4251 PWs)   bands (ev):

   -14.9609 -14.9609 -12.9147  -2.3546  -2.3546   8.2592  10.5074  10.5074
    11.1048  12.3586  12.3586  12.4772  12.4772  12.5372  12.7949  13.1576

     occupation numbers 
     1.0000   1.0000   1.0000   1.0000   0.0000   0.0000   0.0000   0.0000
     0.0000   0.0000   0.0000   0.0000   0.0000   0.0000   0.0000   0.0000

     the Fermi energy is    -2.3546 ev
     (compare with:    -2.3546 eV, computed in scf)

     Writing all to output data dir ../SCF/out/graphene.save/
 
     init_run     :      0.57s CPU      0.67s WALL (       1 calls)
     electrons    :    143.47s CPU    146.47s WALL (       1 calls)

     Called by init_run:
     wfcinit      :      0.00s CPU      0.00s WALL (       1 calls)
                                        0.00s GPU  (       1 calls)
     wfcinit:atom :      0.07s CPU      0.09s WALL (     817 calls)
                                        0.09s GPU  (     817 calls)
     wfcinit:wfcr :      2.74s CPU      2.86s WALL (     817 calls)
                                        2.85s GPU  (     817 calls)
     potinit      :      0.35s CPU      0.37s WALL (       1 calls)
     hinit0       :      0.04s CPU      0.06s WALL (       1 calls)

     Called by electrons:
     c_bands      :    143.20s CPU    146.19s WALL (       1 calls)
     v_of_rho     :      0.02s CPU      0.04s WALL (       1 calls)
     v_h          :      0.00s CPU      0.00s WALL (       1 calls)
     v_xc         :      0.02s CPU      0.03s WALL (       1 calls)
     newd         :      0.01s CPU      0.04s WALL (       1 calls)
                                        0.04s GPU  (       1 calls)
     PAW_pot      :      0.04s CPU      0.04s WALL (       1 calls)

     Called by c_bands:
     init_us_2    :      0.09s CPU      0.10s WALL (     817 calls)
     init_us_2:gp :      0.08s CPU      0.10s WALL (     817 calls)
     cegterg      :    139.63s CPU    141.28s WALL (    2816 calls)

     Called by sum_band:

     Called by *egterg:
     cdiaghg      :     20.98s CPU     21.75s WALL (   48791 calls)
                                       21.39s GPU  (   48791 calls)
     cegterg:over :     15.23s CPU     15.44s WALL (   47974 calls)
     cegterg:upda :      6.43s CPU      6.50s WALL (   47974 calls)
     cegterg:last :      2.08s CPU      2.10s WALL (   30398 calls)
     h_psi        :     81.80s CPU     83.24s WALL (   51607 calls)
                                       82.92s GPU  (   51607 calls)
     s_psi        :      2.83s CPU      3.44s WALL (   51607 calls)
                                        3.04s GPU  (   51607 calls)
     g_psi        :      0.16s CPU      0.73s WALL (   47974 calls)
                                        0.40s GPU  (   47974 calls)

     Called by h_psi:
     h_psi:calbec :     11.60s CPU     12.17s WALL (   51607 calls)
                                       11.85s GPU  (   51607 calls)
     vloc_psi     :     63.96s CPU     65.27s WALL (   51607 calls)
                                       64.87s GPU  (   51607 calls)
     add_vuspsi   :      2.99s CPU      3.61s WALL (   51607 calls)
                                        3.28s GPU  (   51607 calls)

     General routines
     calbec       :     11.14s CPU     11.29s WALL (   51607 calls)
     fft          :      0.12s CPU      0.14s WALL (      13 calls)
                                        0.04s GPU  (      12 calls)
     ffts         :      0.19s CPU      0.19s WALL (       1 calls)
     fftw         :     47.85s CPU     54.66s WALL (  103214 calls)
                                       53.82s GPU  (  103214 calls)
     interpolate  :      0.29s CPU      0.29s WALL (       1 calls)
     davcio       :      0.15s CPU      1.94s WALL (    1634 calls)
 
     Parallel routines

     PAW routines
     PAW_pot      :      0.04s CPU      0.04s WALL (       1 calls)
 
     PWSCF        :   2m26.86s CPU   2m33.53s WALL

 
   This run was terminated on:  16:18: 2  21Nov2023            

=------------------------------------------------------------------------------=
   JOB DONE.
=------------------------------------------------------------------------------=
