
     Program PROJWFC v.7.2 starts on 10Dec2023 at 20:59: 6 

     This program is part of the open-source Quantum ESPRESSO suite
     for quantum simulation of materials; please cite
         "P. Giannozzi et al., J. Phys.:Condens. Matter 21 395502 (2009);
         "P. Giannozzi et al., J. Phys.:Condens. Matter 29 465901 (2017);
         "P. Giannozzi et al., J. Chem. Phys. 152 154105 (2020);
          URL http://www.quantum-espresso.org", 
     in publications or presentations arising from this work. More details at
     http://www.quantum-espresso.org/quote

     Parallel version (MPI & OpenMP), running on       1 processor cores
     Number of MPI processes:                 1
     Threads/MPI process:                     1

     MPI processes distributed on     1 nodes
     510636 MiB available memory on the printing compute node when the environment starts


     Reading xml data from directory:

     ../SCF/out/graphene.save/
     file C.pbe-n-kjpaw_psl.1.0.0.UPF: wavefunction(s)  2S 2P renormalized

     IMPORTANT: XC functional enforced from input :
     Exchange-correlation= PBE
                           (   1   4   3   4   0   0   0)
     Any further DFT definition will be discarded
     Please, verify this is what you really want


     G-vector sticks info
     --------------------
     sticks:   dense  smooth     PW     G-vecs:    dense   smooth      PW
     Sum         595     301     91                96043    34107    6065

     Using Slab Decomposition


     Check: negative core charge=   -0.000002

     negative rho (up, down):  1.273E-04 0.000E+00

     Gaussian broadening (read from input): ngauss,degauss=   0    0.010000


     Calling projwave .... 
     Subspace diagonalization in iterative solution of the eigenvalue problem:
     a serial algorithm will be used


  Problem Sizes 
  natomwfc =            8
  nbnd     =           16
  nkstot   =          817
  npwx     =         4282
  nkb      =           16


     Atomic states used for projection
     (read from pseudopotential files):

     state #   1: atom   1 (C  ), wfc  1 (l=0 m= 1)
     state #   2: atom   1 (C  ), wfc  2 (l=1 m= 1)
     state #   3: atom   1 (C  ), wfc  2 (l=1 m= 2)
     state #   4: atom   1 (C  ), wfc  2 (l=1 m= 3)
     state #   5: atom   2 (C  ), wfc  1 (l=0 m= 1)
     state #   6: atom   2 (C  ), wfc  2 (l=1 m= 1)
     state #   7: atom   2 (C  ), wfc  2 (l=1 m= 2)
     state #   8: atom   2 (C  ), wfc  2 (l=1 m= 3)

 k =   0.0000000000  0.0000000000  0.0000000000
==== e(   1) =   -21.87103 eV ==== 
     psi = 0.492*[#   1]+0.492*[#   5]
    |psi|^2 = 0.984
==== e(   2) =    -9.96607 eV ==== 
     psi = 0.473*[#   2]+0.473*[#   6]
    |psi|^2 = 0.946
==== e(   3) =    -5.41026 eV ==== 
     psi = 0.249*[#   3]+0.249*[#   4]+0.249*[#   7]+0.249*[#   8]
    |psi|^2 = 0.997
==== e(   4) =    -5.41026 eV ==== 
     psi = 0.249*[#   3]+0.249*[#   4]+0.249*[#   7]+0.249*[#   8]
    |psi|^2 = 0.997
==== e(   5) =     0.84817 eV ==== 
     psi = 0.003*[#   1]+0.003*[#   5]
    |psi|^2 = 0.006
==== e(   6) =     1.51486 eV ==== 
     psi = 0.008*[#   2]+0.008*[#   6]
    |psi|^2 = 0.017
==== e(   7) =     1.64433 eV ==== 

    |psi|^2 = 0.001
==== e(   8) =     2.65427 eV ==== 
     psi = 0.007*[#   2]+0.007*[#   6]
    |psi|^2 = 0.015
==== e(   9) =     3.08610 eV ==== 

    |psi|^2 = 0.002
==== e(  10) =     4.77713 eV ==== 
     psi = 0.005*[#   2]+0.005*[#   6]
    |psi|^2 = 0.010
==== e(  11) =     5.43595 eV ==== 

    |psi|^2 = 0.002
==== e(  12) =     5.96141 eV ==== 
     psi = 0.238*[#   3]+0.238*[#   4]+0.238*[#   7]+0.238*[#   8]
    |psi|^2 = 0.951
==== e(  13) =     5.96141 eV ==== 
     psi = 0.238*[#   3]+0.238*[#   4]+0.238*[#   7]+0.238*[#   8]
    |psi|^2 = 0.951
==== e(  14) =     7.76772 eV ==== 
     psi = 0.003*[#   2]+0.003*[#   6]
    |psi|^2 = 0.006
==== e(  15) =     8.56977 eV ==== 

    |psi|^2 = 0.001
==== e(  16) =     9.04382 eV ==== 
     psi = 0.498*[#   2]+0.498*[#   6]
    |psi|^2 = 0.995

 k =   0.0000000000  0.0120281306  0.0000000000
==== e(   1) =   -21.86847 eV ==== 
     psi = 0.492*[#   1]+0.492*[#   5]
    |psi|^2 = 0.984
==== e(   2) =    -9.96300 eV ==== 
     psi = 0.473*[#   2]+0.473*[#   6]
    |psi|^2 = 0.946
==== e(   3) =    -5.42096 eV ==== 
     psi = 0.249*[#   3]+0.249*[#   4]+0.249*[#   7]+0.249*[#   8]
    |psi|^2 = 0.997
==== e(   4) =    -5.41592 eV ==== 
     psi = 0.249*[#   3]+0.249*[#   4]+0.249*[#   7]+0.249*[#   8]
    |psi|^2 = 0.997
==== e(   5) =     0.85165 eV ==== 
     psi = 0.003*[#   1]+0.003*[#   5]
    |psi|^2 = 0.006
==== e(   6) =     1.51840 eV ==== 
     psi = 0.008*[#   2]+0.008*[#   6]
    |psi|^2 = 0.017
==== e(   7) =     1.64789 eV ==== 

    |psi|^2 = 0.001
==== e(   8) =     2.65780 eV ==== 
     psi = 0.007*[#   2]+0.007*[#   6]
    |psi|^2 = 0.015
==== e(   9) =     3.08962 eV ==== 

    |psi|^2 = 0.002
==== e(  10) =     4.78062 eV ==== 
     psi = 0.005*[#   2]+0.005*[#   6]
    |psi|^2 = 0.010
==== e(  11) =     5.43931 eV ==== 

    |psi|^2 = 0.002
==== e(  12) =     5.96320 eV ==== 
     psi = 0.237*[#   3]+0.237*[#   4]+0.237*[#   7]+0.237*[#   8]
    |psi|^2 = 0.950
==== e(  13) =     5.97266 eV ==== 
     psi = 0.238*[#   3]+0.238*[#   4]+0.238*[#   7]+0.238*[#   8]
    |psi|^2 = 0.951
==== e(  14) =     7.77116 eV ==== 
     psi = 0.003*[#   2]+0.003*[#   6]
    |psi|^2 = 0.006
==== e(  15) =     8.57331 eV ==== 

    |psi|^2 = 0.002
==== e(  16) =     9.03480 eV ==== 
     psi = 0.498*[#   2]+0.498*[#   6]
    |psi|^2 = 0.995

 k =   0.0000000000  0.0240562612  0.0000000000
==== e(   1) =   -21.86079 eV ==== 
     psi = 0.490*[#   1]+0.490*[#   5]
    |psi|^2 = 0.984
==== e(   2) =    -9.95382 eV ==== 
     psi = 0.473*[#   2]+0.473*[#   6]
    |psi|^2 = 0.946
==== e(   3) =    -5.45298 eV ==== 
     psi = 0.249*[#   3]+0.249*[#   4]+0.249*[#   7]+0.249*[#   8]+0.001*[#   1]
          +0.001*[#   5]
    |psi|^2 = 0.997
==== e(   4) =    -5.43283 eV ==== 
     psi = 0.249*[#   3]+0.249*[#   4]+0.249*[#   7]+0.249*[#   8]
    |psi|^2 = 0.997
==== e(   5) =     0.86211 eV ==== 
     psi = 0.003*[#   1]+0.003*[#   5]
    |psi|^2 = 0.007
==== e(   6) =     1.52901 eV ==== 
     psi = 0.008*[#   2]+0.008*[#   6]
    |psi|^2 = 0.017
==== e(   7) =     1.65856 eV ==== 

    |psi|^2 = 0.001
==== e(   8) =     2.66837 eV ==== 
     psi = 0.007*[#   2]+0.007*[#   6]
    |psi|^2 = 0.014
==== e(   9) =     3.10020 eV ==== 

    |psi|^2 = 0.002
==== e(  10) =     4.79112 eV ==== 
     psi = 0.005*[#   2]+0.005*[#   6]
    |psi|^2 = 0.010
==== e(  11) =     5.44939 eV ==== 
     psi = 0.001*[#   1]+0.001*[#   5]
    |psi|^2 = 0.002
==== e(  12) =     5.96845 eV ==== 
     psi = 0.236*[#   3]+0.236*[#   4]+0.236*[#   7]+0.236*[#   8]+0.002*[#   1]
          +0.002*[#   5]
    |psi|^2 = 0.949
==== e(  13) =     6.00631 eV ==== 
     psi = 0.238*[#   3]+0.238*[#   4]+0.238*[#   7]+0.238*[#   8]
    |psi|^2 = 0.951
==== e(  14) =     7.78149 eV ==== 
     psi = 0.003*[#   2]+0.003*[#   6]
    |psi|^2 = 0.006
==== e(  15) =     8.58395 eV ==== 

    |psi|^2 = 0.002
==== e(  16) =     9.00781 eV ==== 
     psi = 0.497*[#   2]+0.497*[#   6]
    |psi|^2 = 0.995

 k =   0.0000000000  0.0360843918  0.0000000000
==== e(   1) =   -21.84798 eV ==== 
     psi = 0.488*[#   1]+0.488*[#   5]+0.002*[#   3]+0.002*[#   4]+0.002*[#   7]
          +0.002*[#   8]
    |psi|^2 = 0.984
==== e(   2) =    -9.93850 eV ==== 
     psi = 0.473*[#   2]+0.473*[#   6]
    |psi|^2 = 0.947
==== e(   3) =    -5.50596 eV ==== 
     psi = 0.248*[#   3]+0.248*[#   4]+0.248*[#   7]+0.248*[#   8]+0.003*[#   1]
          +0.003*[#   5]
    |psi|^2 = 0.997
==== e(   4) =    -5.46076 eV ==== 
     psi = 0.249*[#   3]+0.249*[#   4]+0.249*[#   7]+0.249*[#   8]
    |psi|^2 = 0.997
==== e(   5) =     0.87954 eV ==== 
     psi = 0.003*[#   1]+0.003*[#   5]
    |psi|^2 = 0.008
==== e(   6) =     1.54669 eV ==== 
     psi = 0.008*[#   2]+0.008*[#   6]
    |psi|^2 = 0.016
==== e(   7) =     1.67636 eV ==== 

    |psi|^2 = 0.001
==== e(   8) =     2.68600 eV ==== 
     psi = 0.007*[#   2]+0.007*[#   6]
    |psi|^2 = 0.014
==== e(   9) =     3.11782 eV ==== 

    |psi|^2 = 0.002
==== e(  10) =     4.80860 eV ==== 
     psi = 0.005*[#   2]+0.005*[#   6]
    |psi|^2 = 0.010
==== e(  11) =     5.46619 eV ==== 
     psi = 0.001*[#   1]+0.001*[#   5]
    |psi|^2 = 0.003
==== e(  12) =     5.97676 eV ==== 
     psi = 0.234*[#   3]+0.234*[#   4]+0.234*[#   7]+0.234*[#   8]+0.005*[#   1]
          +0.005*[#   5]
    |psi|^2 = 0.946
==== e(  13) =     6.06213 eV ==== 
     psi = 0.238*[#   3]+0.238*[#   4]+0.238*[#   7]+0.238*[#   8]
    |psi|^2 = 0.950
==== e(  14) =     7.79869 eV ==== 
     psi = 0.003*[#   2]+0.003*[#   6]
    |psi|^2 = 0.006
==== e(  15) =     8.60167 eV ==== 

    |psi|^2 = 0.002
==== e(  16) =     8.96300 eV ==== 
     psi = 0.497*[#   2]+0.497*[#   6]
    |psi|^2 = 0.994

 k =   0.0000000000  0.0481125224  0.0000000000
==== e(   1) =   -21.83006 eV ==== 
     psi = 0.484*[#   1]+0.484*[#   5]+0.004*[#   3]+0.004*[#   4]+0.004*[#   7]
          +0.004*[#   8]
    |psi|^2 = 0.984
==== e(   2) =    -9.91707 eV ==== 
     psi = 0.474*[#   2]+0.474*[#   6]
    |psi|^2 = 0.947
==== e(   3) =    -5.57938 eV ==== 
     psi = 0.247*[#   3]+0.247*[#   4]+0.247*[#   7]+0.247*[#   8]+0.004*[#   1]
          +0.004*[#   5]
    |psi|^2 = 0.997
==== e(   4) =    -5.49932 eV ==== 
     psi = 0.249*[#   3]+0.249*[#   4]+0.249*[#   7]+0.249*[#   8]
    |psi|^2 = 0.997
==== e(   5) =     0.90395 eV ==== 
     psi = 0.003*[#   1]+0.003*[#   5]+0.001*[#   3]+0.001*[#   4]+0.001*[#   7]
          +0.001*[#   8]
    |psi|^2 = 0.010
==== e(   6) =     1.57145 eV ==== 
     psi = 0.008*[#   2]+0.008*[#   6]
    |psi|^2 = 0.016
==== e(   7) =     1.70126 eV ==== 

    |psi|^2 = 0.001
==== e(   8) =     2.71067 eV ==== 
     psi = 0.007*[#   2]+0.007*[#   6]
    |psi|^2 = 0.014
==== e(   9) =     3.14248 eV ==== 

    |psi|^2 = 0.002
==== e(  10) =     4.83308 eV ==== 
     psi = 0.005*[#   2]+0.005*[#   6]
    |psi|^2 = 0.010
==== e(  11) =     5.48967 eV ==== 
     psi = 0.001*[#   1]+0.001*[#   5]
    |psi|^2 = 0.004
==== e(  12) =     5.98754 eV ==== 
     psi = 0.231*[#   3]+0.231*[#   4]+0.231*[#   7]+0.231*[#   8]+0.008*[#   1]
          +0.008*[#   5]
    |psi|^2 = 0.942
==== e(  13) =     6.13969 eV ==== 
     psi = 0.238*[#   3]+0.238*[#   4]+0.238*[#   7]+0.238*[#   8]
    |psi|^2 = 0.950
==== e(  14) =     7.82278 eV ==== 
     psi = 0.003*[#   2]+0.003*[#   6]
    |psi|^2 = 0.006
==== e(  15) =     8.62647 eV ==== 

    |psi|^2 = 0.002
==== e(  16) =     8.90065 eV ==== 
     psi = 0.497*[#   2]+0.497*[#   6]
    |psi|^2 = 0.993

 k =   0.0000000000  0.0601406530  0.0000000000
==== e(   1) =   -21.80704 eV ==== 
     psi = 0.480*[#   1]+0.480*[#   5]+0.006*[#   3]+0.006*[#   4]+0.006*[#   7]
          +0.006*[#   8]
    |psi|^2 = 0.984
==== e(   2) =    -9.88954 eV ==== 
     psi = 0.474*[#   2]+0.474*[#   6]
    |psi|^2 = 0.948
==== e(   3) =    -5.67252 eV ==== 
     psi = 0.246*[#   3]+0.246*[#   4]+0.246*[#   7]+0.246*[#   8]+0.007*[#   1]
          +0.007*[#   5]
    |psi|^2 = 0.997
==== e(   4) =    -5.54801 eV ==== 
     psi = 0.249*[#   3]+0.249*[#   4]+0.249*[#   7]+0.249*[#   8]
    |psi|^2 = 0.997
==== e(   5) =     0.93533 eV ==== 
     psi = 0.002*[#   1]+0.002*[#   5]+0.002*[#   3]+0.002*[#   4]+0.002*[#   7]
          +0.002*[#   8]
    |psi|^2 = 0.012
==== e(   6) =     1.60327 eV ==== 
     psi = 0.008*[#   2]+0.008*[#   6]
    |psi|^2 = 0.016
==== e(   7) =     1.73329 eV ==== 

    |psi|^2 = 0.002
==== e(   8) =     2.74239 eV ==== 
     psi = 0.007*[#   2]+0.007*[#   6]
    |psi|^2 = 0.014
==== e(   9) =     3.17420 eV ==== 

    |psi|^2 = 0.003
==== e(  10) =     4.86455 eV ==== 
     psi = 0.005*[#   2]+0.005*[#   6]
    |psi|^2 = 0.010
==== e(  11) =     5.51979 eV ==== 
     psi = 0.001*[#   1]+0.001*[#   5]
    |psi|^2 = 0.006
==== e(  12) =     6.00004 eV ==== 
     psi = 0.228*[#   3]+0.228*[#   4]+0.228*[#   7]+0.228*[#   8]+0.013*[#   1]
          +0.013*[#   5]
    |psi|^2 = 0.937
==== e(  13) =     6.23847 eV ==== 
     psi = 0.237*[#   3]+0.237*[#   4]+0.237*[#   7]+0.237*[#   8]
    |psi|^2 = 0.949
==== e(  14) =     7.85373 eV ==== 
     psi = 0.003*[#   2]+0.003*[#   6]
    |psi|^2 = 0.006
==== e(  15) =     8.65832 eV ==== 

    |psi|^2 = 0.003
==== e(  16) =     8.82112 eV ==== 
     psi = 0.496*[#   2]+0.496*[#   6]
    |psi|^2 = 0.992

 k =   0.0000000000  0.0721687836  0.0000000000
==== e(   1) =   -21.77889 eV ==== 
     psi = 0.475*[#   1]+0.475*[#   5]+0.008*[#   3]+0.008*[#   4]+0.008*[#   7]
          +0.008*[#   8]
    |psi|^2 = 0.984
==== e(   2) =    -9.85590 eV ==== 
     psi = 0.474*[#   2]+0.474*[#   6]
    |psi|^2 = 0.949
==== e(   3) =    -5.78450 eV ==== 
     psi = 0.244*[#   3]+0.244*[#   4]+0.244*[#   7]+0.244*[#   8]+0.010*[#   1]
          +0.010*[#   5]
    |psi|^2 = 0.997
==== e(   4) =    -5.60619 eV ==== 
     psi = 0.249*[#   3]+0.249*[#   4]+0.249*[#   7]+0.249*[#   8]
    |psi|^2 = 0.997
==== e(   5) =     0.97368 eV ==== 
     psi = 0.003*[#   3]+0.003*[#   4]+0.003*[#   7]+0.003*[#   8]+0.002*[#   1]
          +0.002*[#   5]
    |psi|^2 = 0.014
==== e(   6) =     1.64217 eV ==== 
     psi = 0.008*[#   2]+0.008*[#   6]
    |psi|^2 = 0.016
==== e(   7) =     1.77243 eV ==== 

    |psi|^2 = 0.002
==== e(   8) =     2.78115 eV ==== 
     psi = 0.007*[#   2]+0.007*[#   6]
    |psi|^2 = 0.014
==== e(   9) =     3.21297 eV ==== 

    |psi|^2 = 0.003
==== e(  10) =     4.90300 eV ==== 
     psi = 0.005*[#   2]+0.005*[#   6]
    |psi|^2 = 0.010
==== e(  11) =     5.55648 eV ==== 
     psi = 0.002*[#   1]+0.002*[#   5]+0.001*[#   3]+0.001*[#   4]+0.001*[#   7]
          +0.001*[#   8]
    |psi|^2 = 0.008
==== e(  12) =     6.01344 eV ==== 
     psi = 0.223*[#   3]+0.223*[#   4]+0.223*[#   7]+0.223*[#   8]+0.018*[#   1]
          +0.018*[#   5]
    |psi|^2 = 0.930
==== e(  13) =     6.35779 eV ==== 
     psi = 0.237*[#   3]+0.237*[#   4]+0.237*[#   7]+0.237*[#   8]
    |psi|^2 = 0.949
==== e(  14) =     7.89153 eV ==== 
     psi = 0.003*[#   2]+0.003*[#   6]
    |psi|^2 = 0.006
==== e(  15) =     8.69722 eV ==== 

    |psi|^2 = 0.003
==== e(  16) =     8.72489 eV ==== 
     psi = 0.495*[#   2]+0.495*[#   6]
    |psi|^2 = 0.991

 k =   0.0000000000  0.0841969143  0.0000000000
==== e(   1) =   -21.74564 eV ==== 
     psi = 0.470*[#   1]+0.470*[#   5]+0.011*[#   3]+0.011*[#   4]+0.011*[#   7]
          +0.011*[#   8]
    |psi|^2 = 0.984
==== e(   2) =    -9.81618 eV ==== 
     psi = 0.475*[#   2]+0.475*[#   6]
    |psi|^2 = 0.950
==== e(   3) =    -5.91432 eV ==== 
     psi = 0.243*[#   3]+0.243*[#   4]+0.243*[#   7]+0.243*[#   8]+0.013*[#   1]
          +0.013*[#   5]
    |psi|^2 = 0.997
==== e(   4) =    -5.67317 eV ==== 
     psi = 0.249*[#   3]+0.249*[#   4]+0.249*[#   7]+0.249*[#   8]
    |psi|^2 = 0.997
==== e(   5) =     1.01901 eV ==== 
     psi = 0.003*[#   3]+0.003*[#   4]+0.003*[#   7]+0.003*[#   8]+0.002*[#   1]
          +0.002*[#   5]
    |psi|^2 = 0.016
==== e(   6) =     1.68813 eV ==== 
     psi = 0.008*[#   2]+0.008*[#   6]
    |psi|^2 = 0.016
==== e(   7) =     1.81869 eV ==== 

    |psi|^2 = 0.002
==== e(   8) =     2.82695 eV ==== 
     psi = 0.007*[#   2]+0.007*[#   6]
    |psi|^2 = 0.014
==== e(   9) =     3.25879 eV ==== 

    |psi|^2 = 0.003
==== e(  10) =     4.94844 eV ==== 
     psi = 0.005*[#   2]+0.005*[#   6]
    |psi|^2 = 0.010
==== e(  11) =     5.59960 eV ==== 
     psi = 0.002*[#   1]+0.002*[#   5]+0.002*[#   3]+0.002*[#   4]+0.002*[#   7]
          +0.002*[#   8]
    |psi|^2 = 0.012
==== e(  12) =     6.02690 eV ==== 
     psi = 0.218*[#   3]+0.218*[#   4]+0.218*[#   7]+0.218*[#   8]+0.025*[#   1]
          +0.025*[#   5]
    |psi|^2 = 0.922
==== e(  13) =     6.49692 eV ==== 
     psi = 0.237*[#   3]+0.237*[#   4]+0.237*[#   7]+0.237*[#   8]
    |psi|^2 = 0.948
==== e(  14) =     7.93616 eV ==== 
     psi = 0.003*[#   2]+0.003*[#   6]
    |psi|^2 = 0.006
==== e(  15) =     8.61249 eV ==== 
     psi = 0.495*[#   2]+0.495*[#   6]
    |psi|^2 = 0.989
==== e(  16) =     8.74313 eV ==== 

    |psi|^2 = 0.004

 k =   0.0000000000  0.0962250449  0.0000000000
==== e(   1) =   -21.70728 eV ==== 
     psi = 0.464*[#   1]+0.464*[#   5]+0.014*[#   3]+0.014*[#   4]+0.014*[#   7]
          +0.014*[#   8]
    |psi|^2 = 0.984
==== e(   2) =    -9.77038 eV ==== 
     psi = 0.475*[#   2]+0.475*[#   6]
    |psi|^2 = 0.951
==== e(   3) =    -6.06090 eV ==== 
     psi = 0.241*[#   3]+0.241*[#   4]+0.241*[#   7]+0.241*[#   8]+0.017*[#   1]
          +0.017*[#   5]
    |psi|^2 = 0.997
==== e(   4) =    -5.74818 eV ==== 
     psi = 0.249*[#   3]+0.249*[#   4]+0.249*[#   7]+0.249*[#   8]
    |psi|^2 = 0.997
==== e(   5) =     1.07131 eV ==== 
     psi = 0.004*[#   3]+0.004*[#   4]+0.004*[#   7]+0.004*[#   8]+0.001*[#   1]
          +0.001*[#   5]
    |psi|^2 = 0.019
==== e(   6) =     1.74115 eV ==== 
     psi = 0.008*[#   2]+0.008*[#   6]
    |psi|^2 = 0.015
==== e(   7) =     1.87207 eV ==== 

    |psi|^2 = 0.002
==== e(   8) =     2.87979 eV ==== 
     psi = 0.007*[#   2]+0.007*[#   6]
    |psi|^2 = 0.013
==== e(   9) =     3.31166 eV ==== 

    |psi|^2 = 0.003
==== e(  10) =     5.00084 eV ==== 
     psi = 0.005*[#   2]+0.005*[#   6]
    |psi|^2 = 0.009
==== e(  11) =     5.64886 eV ==== 
     psi = 0.003*[#   3]+0.003*[#   4]+0.003*[#   7]+0.003*[#   8]+0.003*[#   1]
          +0.003*[#   5]
    |psi|^2 = 0.019
==== e(  12) =     6.03973 eV ==== 
     psi = 0.211*[#   3]+0.211*[#   4]+0.211*[#   7]+0.211*[#   8]+0.032*[#   1]
          +0.032*[#   5]
    |psi|^2 = 0.911
==== e(  13) =     6.65498 eV ==== 
     psi = 0.237*[#   3]+0.237*[#   4]+0.237*[#   7]+0.237*[#   8]
    |psi|^2 = 0.947
==== e(  14) =     7.98756 eV ==== 
     psi = 0.003*[#   2]+0.003*[#   6]
    |psi|^2 = 0.006
==== e(  15) =     8.48459 eV ==== 
     psi = 0.494*[#   2]+0.494*[#   6]
    |psi|^2 = 0.987
==== e(  16) =     8.79604 eV ==== 

    |psi|^2 = 0.004

 k =   0.0000000000  0.1082531755  0.0000000000
==== e(   1) =   -21.66383 eV ==== 
     psi = 0.457*[#   1]+0.457*[#   5]+0.017*[#   3]+0.017*[#   4]+0.017*[#   7]
          +0.017*[#   8]
    |psi|^2 = 0.983
==== e(   2) =    -9.71854 eV ==== 
     psi = 0.476*[#   2]+0.476*[#   6]
    |psi|^2 = 0.952
==== e(   3) =    -6.22309 eV ==== 
     psi = 0.239*[#   3]+0.239*[#   4]+0.239*[#   7]+0.239*[#   8]+0.021*[#   1]
          +0.021*[#   5]
    |psi|^2 = 0.997
==== e(   4) =    -5.83040 eV ==== 
     psi = 0.249*[#   3]+0.249*[#   4]+0.249*[#   7]+0.249*[#   8]
    |psi|^2 = 0.997
==== e(   5) =     1.13059 eV ==== 
     psi = 0.005*[#   3]+0.005*[#   4]+0.005*[#   7]+0.005*[#   8]
    |psi|^2 = 0.022
==== e(   6) =     1.80124 eV ==== 
     psi = 0.007*[#   2]+0.007*[#   6]
    |psi|^2 = 0.015
==== e(   7) =     1.93257 eV ==== 

    |psi|^2 = 0.003
==== e(   8) =     2.93966 eV ==== 
     psi = 0.006*[#   2]+0.006*[#   6]
    |psi|^2 = 0.013
==== e(   9) =     3.37159 eV ==== 

    |psi|^2 = 0.004
==== e(  10) =     5.06021 eV ==== 
     psi = 0.005*[#   2]+0.005*[#   6]
    |psi|^2 = 0.009
==== e(  11) =     5.70376 eV ==== 
     psi = 0.006*[#   3]+0.006*[#   4]+0.006*[#   7]+0.006*[#   8]+0.004*[#   1]
          +0.004*[#   5]
    |psi|^2 = 0.031
==== e(  12) =     6.05156 eV ==== 
     psi = 0.204*[#   3]+0.204*[#   4]+0.204*[#   7]+0.204*[#   8]+0.040*[#   1]
          +0.040*[#   5]
    |psi|^2 = 0.894
==== e(  13) =     6.83111 eV ==== 
     psi = 0.237*[#   3]+0.237*[#   4]+0.237*[#   7]+0.237*[#   8]
    |psi|^2 = 0.946
==== e(  14) =     8.04548 eV ==== 
     psi = 0.004*[#   2]+0.004*[#   6]
    |psi|^2 = 0.007
==== e(  15) =     8.34206 eV ==== 
     psi = 0.492*[#   2]+0.492*[#   6]
    |psi|^2 = 0.984
==== e(  16) =     8.85590 eV ==== 
     psi = 0.001*[#   3]+0.001*[#   4]+0.001*[#   7]+0.001*[#   8]
    |psi|^2 = 0.005

 k =   0.0000000000  0.1202813061  0.0000000000
==== e(   1) =   -21.61530 eV ==== 
     psi = 0.450*[#   1]+0.450*[#   5]+0.021*[#   3]+0.021*[#   4]+0.021*[#   7]
          +0.021*[#   8]
    |psi|^2 = 0.983
==== e(   2) =    -9.66067 eV ==== 
     psi = 0.477*[#   2]+0.477*[#   6]
    |psi|^2 = 0.953
==== e(   3) =    -6.39971 eV ==== 
     psi = 0.237*[#   3]+0.237*[#   4]+0.237*[#   7]+0.237*[#   8]+0.025*[#   1]
          +0.025*[#   5]
    |psi|^2 = 0.997
==== e(   4) =    -5.91900 eV ==== 
     psi = 0.249*[#   3]+0.249*[#   4]+0.249*[#   7]+0.249*[#   8]
    |psi|^2 = 0.997
==== e(   5) =     1.19684 eV ==== 
     psi = 0.006*[#   3]+0.006*[#   4]+0.006*[#   7]+0.006*[#   8]
    |psi|^2 = 0.024
==== e(   6) =     1.86838 eV ==== 
     psi = 0.007*[#   2]+0.007*[#   6]
    |psi|^2 = 0.015
==== e(   7) =     2.00018 eV ==== 

    |psi|^2 = 0.003
==== e(   8) =     3.00657 eV ==== 
     psi = 0.006*[#   2]+0.006*[#   6]
    |psi|^2 = 0.013
==== e(   9) =     3.43856 eV ==== 

    |psi|^2 = 0.004
==== e(  10) =     5.12653 eV ==== 
     psi = 0.004*[#   2]+0.004*[#   6]
    |psi|^2 = 0.009
==== e(  11) =     5.76326 eV ==== 
     psi = 0.010*[#   3]+0.010*[#   4]+0.010*[#   7]+0.010*[#   8]+0.007*[#   1]
          +0.007*[#   5]
    |psi|^2 = 0.054
==== e(  12) =     6.06266 eV ==== 
     psi = 0.193*[#   3]+0.193*[#   4]+0.193*[#   7]+0.193*[#   8]+0.048*[#   1]
          +0.048*[#   5]
    |psi|^2 = 0.867
==== e(  13) =     7.02441 eV ==== 
     psi = 0.236*[#   3]+0.236*[#   4]+0.236*[#   7]+0.236*[#   8]
    |psi|^2 = 0.945
==== e(  14) =     8.10700 eV ==== 
     psi = 0.028*[#   2]+0.028*[#   6]
    |psi|^2 = 0.056
==== e(  15) =     8.18850 eV ==== 
     psi = 0.467*[#   2]+0.467*[#   6]
    |psi|^2 = 0.934
==== e(  16) =     8.92270 eV ==== 
     psi = 0.001*[#   3]+0.001*[#   4]+0.001*[#   7]+0.001*[#   8]
    |psi|^2 = 0.005

 k =   0.0000000000  0.1323094367  0.0000000000
==== e(   1) =   -21.56168 eV ==== 
     psi = 0.443*[#   1]+0.443*[#   5]+0.024*[#   3]+0.024*[#   4]+0.024*[#   7]
          +0.024*[#   8]
    |psi|^2 = 0.983
==== e(   2) =    -9.59680 eV ==== 
     psi = 0.477*[#   2]+0.477*[#   6]
    |psi|^2 = 0.955
==== e(   3) =    -6.58959 eV ==== 
     psi = 0.234*[#   3]+0.234*[#   4]+0.234*[#   7]+0.234*[#   8]+0.030*[#   1]
          +0.030*[#   5]
    |psi|^2 = 0.996
==== e(   4) =    -6.01316 eV ==== 
     psi = 0.249*[#   3]+0.249*[#   4]+0.249*[#   7]+0.249*[#   8]
    |psi|^2 = 0.997
==== e(   5) =     1.27007 eV ==== 
     psi = 0.006*[#   3]+0.006*[#   4]+0.006*[#   7]+0.006*[#   8]
    |psi|^2 = 0.027
==== e(   6) =     1.94257 eV ==== 
     psi = 0.007*[#   2]+0.007*[#   6]
    |psi|^2 = 0.014
==== e(   7) =     2.07492 eV ==== 

    |psi|^2 = 0.003
==== e(   8) =     3.08049 eV ==== 
     psi = 0.006*[#   2]+0.006*[#   6]
    |psi|^2 = 0.012
==== e(   9) =     3.51258 eV ==== 

    |psi|^2 = 0.004
==== e(  10) =     5.19978 eV ==== 
     psi = 0.004*[#   2]+0.004*[#   6]
    |psi|^2 = 0.009
==== e(  11) =     5.82502 eV ==== 
     psi = 0.020*[#   3]+0.020*[#   4]+0.020*[#   7]+0.020*[#   8]+0.012*[#   1]
          +0.012*[#   5]
    |psi|^2 = 0.103
==== e(  12) =     6.07478 eV ==== 
     psi = 0.177*[#   3]+0.177*[#   4]+0.177*[#   7]+0.177*[#   8]+0.053*[#   1]
          +0.053*[#   5]
    |psi|^2 = 0.813
==== e(  13) =     7.23393 eV ==== 
     psi = 0.236*[#   3]+0.236*[#   4]+0.236*[#   7]+0.236*[#   8]
    |psi|^2 = 0.944
==== e(  14) =     8.01030 eV ==== 
     psi = 0.482*[#   2]+0.482*[#   6]
    |psi|^2 = 0.964
==== e(  15) =     8.18646 eV ==== 
     psi = 0.012*[#   2]+0.012*[#   6]
    |psi|^2 = 0.023
==== e(  16) =     8.99641 eV ==== 
     psi = 0.001*[#   3]+0.001*[#   4]+0.001*[#   7]+0.001*[#   8]
    |psi|^2 = 0.006

 k =   0.0000000000  0.1443375673  0.0000000000
==== e(   1) =   -21.50300 eV ==== 
     psi = 0.435*[#   1]+0.435*[#   5]+0.028*[#   3]+0.028*[#   4]+0.028*[#   7]
          +0.028*[#   8]
    |psi|^2 = 0.983
==== e(   2) =    -9.52696 eV ==== 
     psi = 0.478*[#   2]+0.478*[#   6]
    |psi|^2 = 0.956
==== e(   3) =    -6.79156 eV ==== 
     psi = 0.232*[#   3]+0.232*[#   4]+0.232*[#   7]+0.232*[#   8]+0.034*[#   1]
          +0.034*[#   5]
    |psi|^2 = 0.996
==== e(   4) =    -6.11205 eV ==== 
     psi = 0.249*[#   3]+0.249*[#   4]+0.249*[#   7]+0.249*[#   8]
    |psi|^2 = 0.997
==== e(   5) =     1.35026 eV ==== 
     psi = 0.007*[#   3]+0.007*[#   4]+0.007*[#   7]+0.007*[#   8]
    |psi|^2 = 0.029
==== e(   6) =     2.02381 eV ==== 
     psi = 0.007*[#   2]+0.007*[#   6]
    |psi|^2 = 0.014
==== e(   7) =     2.15677 eV ==== 

    |psi|^2 = 0.003
==== e(   8) =     3.16143 eV ==== 
     psi = 0.006*[#   2]+0.006*[#   6]
    |psi|^2 = 0.012
==== e(   9) =     3.59364 eV ==== 

    |psi|^2 = 0.004
==== e(  10) =     5.27994 eV ==== 
     psi = 0.004*[#   2]+0.004*[#   6]
    |psi|^2 = 0.008
==== e(  11) =     5.88368 eV ==== 
     psi = 0.041*[#   3]+0.041*[#   4]+0.041*[#   7]+0.041*[#   8]+0.025*[#   1]
          +0.025*[#   5]
    |psi|^2 = 0.213
==== e(  12) =     6.09286 eV ==== 
     psi = 0.149*[#   3]+0.149*[#   4]+0.149*[#   7]+0.149*[#   8]+0.052*[#   1]
          +0.052*[#   5]
    |psi|^2 = 0.699
==== e(  13) =     7.45871 eV ==== 
     psi = 0.236*[#   3]+0.236*[#   4]+0.236*[#   7]+0.236*[#   8]
    |psi|^2 = 0.943
==== e(  14) =     7.82800 eV ==== 
     psi = 0.488*[#   2]+0.488*[#   6]
    |psi|^2 = 0.975
==== e(  15) =     8.26405 eV ==== 
     psi = 0.005*[#   2]+0.005*[#   6]
    |psi|^2 = 0.010
==== e(  16) =     9.07700 eV ==== 
     psi = 0.001*[#   3]+0.001*[#   4]+0.001*[#   7]+0.001*[#   8]
    |psi|^2 = 0.006

 k =   0.0000000000  0.1563656979  0.0000000000
==== e(   1) =   -21.43926 eV ==== 
     psi = 0.428*[#   1]+0.428*[#   5]+0.032*[#   3]+0.032*[#   4]+0.032*[#   7]
          +0.032*[#   8]
    |psi|^2 = 0.983
==== e(   2) =    -9.45118 eV ==== 
     psi = 0.479*[#   2]+0.479*[#   6]
    |psi|^2 = 0.958
==== e(   3) =    -7.00447 eV ==== 
     psi = 0.229*[#   3]+0.229*[#   4]+0.229*[#   7]+0.229*[#   8]+0.039*[#   1]
          +0.039*[#   5]
    |psi|^2 = 0.996
==== e(   4) =    -6.21488 eV ==== 
     psi = 0.249*[#   3]+0.249*[#   4]+0.249*[#   7]+0.249*[#   8]
    |psi|^2 = 0.997
==== e(   5) =     1.43741 eV ==== 
     psi = 0.008*[#   3]+0.008*[#   4]+0.008*[#   7]+0.008*[#   8]
    |psi|^2 = 0.031
==== e(   6) =     2.11208 eV ==== 
     psi = 0.007*[#   2]+0.007*[#   6]
    |psi|^2 = 0.013
==== e(   7) =     2.24574 eV ==== 

    |psi|^2 = 0.004
==== e(   8) =     3.24937 eV ==== 
     psi = 0.006*[#   2]+0.006*[#   6]
    |psi|^2 = 0.011
==== e(   9) =     3.68174 eV ==== 

    |psi|^2 = 0.004
==== e(  10) =     5.36698 eV ==== 
     psi = 0.004*[#   2]+0.004*[#   6]
    |psi|^2 = 0.008
==== e(  11) =     5.92869 eV ==== 
     psi = 0.079*[#   3]+0.079*[#   4]+0.079*[#   7]+0.079*[#   8]+0.048*[#   1]
          +0.048*[#   5]
    |psi|^2 = 0.413
==== e(  12) =     6.12718 eV ==== 
     psi = 0.104*[#   3]+0.104*[#   4]+0.104*[#   7]+0.104*[#   8]+0.040*[#   1]
          +0.040*[#   5]
    |psi|^2 = 0.496
==== e(  13) =     7.63272 eV ==== 
     psi = 0.488*[#   2]+0.488*[#   6]
    |psi|^2 = 0.975
==== e(  14) =     7.69788 eV ==== 
     psi = 0.235*[#   3]+0.235*[#   4]+0.235*[#   7]+0.235*[#   8]
    |psi|^2 = 0.941
==== e(  15) =     8.34944 eV ==== 
     psi = 0.004*[#   2]+0.004*[#   6]
    |psi|^2 = 0.007
==== e(  16) =     9.16447 eV ==== 
     psi = 0.001*[#   3]+0.001*[#   4]+0.001*[#   7]+0.001*[#   8]
    |psi|^2 = 0.006

 k =   0.0000000000  0.1683938285  0.0000000000
==== e(   1) =   -21.37047 eV ==== 
     psi = 0.420*[#   1]+0.420*[#   5]+0.036*[#   3]+0.036*[#   4]+0.036*[#   7]
          +0.036*[#   8]
    |psi|^2 = 0.983
==== e(   2) =    -9.36949 eV ==== 
     psi = 0.480*[#   2]+0.480*[#   6]
    |psi|^2 = 0.959
==== e(   3) =    -7.22724 eV ==== 
     psi = 0.227*[#   3]+0.227*[#   4]+0.227*[#   7]+0.227*[#   8]+0.044*[#   1]
          +0.044*[#   5]
    |psi|^2 = 0.995
==== e(   4) =    -6.32089 eV ==== 
     psi = 0.249*[#   3]+0.249*[#   4]+0.249*[#   7]+0.249*[#   8]
    |psi|^2 = 0.997
==== e(   5) =     1.53153 eV ==== 
     psi = 0.008*[#   3]+0.008*[#   4]+0.008*[#   7]+0.008*[#   8]
    |psi|^2 = 0.033
==== e(   6) =     2.20739 eV ==== 
     psi = 0.006*[#   2]+0.006*[#   6]
    |psi|^2 = 0.013
==== e(   7) =     2.34183 eV ==== 

    |psi|^2 = 0.004
==== e(   8) =     3.34430 eV ==== 
     psi = 0.005*[#   2]+0.005*[#   6]
    |psi|^2 = 0.011
==== e(   9) =     3.77688 eV ==== 

    |psi|^2 = 0.004
==== e(  10) =     5.46083 eV ==== 
     psi = 0.004*[#   2]+0.004*[#   6]
    |psi|^2 = 0.008
==== e(  11) =     5.95072 eV ==== 
     psi = 0.117*[#   3]+0.117*[#   4]+0.117*[#   7]+0.117*[#   8]+0.077*[#   1]
          +0.077*[#   5]
    |psi|^2 = 0.620
==== e(  12) =     6.18702 eV ==== 
     psi = 0.060*[#   3]+0.060*[#   4]+0.060*[#   7]+0.060*[#   8]+0.024*[#   1]
          +0.024*[#   5]
    |psi|^2 = 0.287
==== e(  13) =     7.42610 eV ==== 
     psi = 0.487*[#   2]+0.487*[#   6]
    |psi|^2 = 0.973
==== e(  14) =     7.95049 eV ==== 
     psi = 0.235*[#   3]+0.235*[#   4]+0.235*[#   7]+0.235*[#   8]
    |psi|^2 = 0.940
==== e(  15) =     8.44180 eV ==== 
     psi = 0.003*[#   2]+0.003*[#   6]
    |psi|^2 = 0.007
==== e(  16) =     9.25878 eV ==== 
     psi = 0.001*[#   3]+0.001*[#   4]+0.001*[#   7]+0.001*[#   8]
    |psi|^2 = 0.007

 k =   0.0000000000  0.1804219591  0.0000000000
==== e(   1) =   -21.29664 eV ==== 
     psi = 0.412*[#   1]+0.412*[#   5]+0.040*[#   3]+0.040*[#   4]+0.040*[#   7]
          +0.040*[#   8]
    |psi|^2 = 0.982
==== e(   2) =    -9.28194 eV ==== 
     psi = 0.481*[#   2]+0.481*[#   6]
    |psi|^2 = 0.961
==== e(   3) =    -7.45880 eV ==== 
     psi = 0.224*[#   3]+0.224*[#   4]+0.224*[#   7]+0.224*[#   8]+0.049*[#   1]
          +0.049*[#   5]
    |psi|^2 = 0.995
==== e(   4) =    -6.42934 eV ==== 
     psi = 0.249*[#   3]+0.249*[#   4]+0.249*[#   7]+0.249*[#   8]
    |psi|^2 = 0.997
==== e(   5) =     1.63260 eV ==== 
     psi = 0.008*[#   3]+0.008*[#   4]+0.008*[#   7]+0.008*[#   8]
    |psi|^2 = 0.034
==== e(   6) =     2.30971 eV ==== 
     psi = 0.006*[#   2]+0.006*[#   6]
    |psi|^2 = 0.012
==== e(   7) =     2.44503 eV ==== 

    |psi|^2 = 0.004
==== e(   8) =     3.44619 eV ==== 
     psi = 0.005*[#   2]+0.005*[#   6]
    |psi|^2 = 0.010
==== e(   9) =     3.87903 eV ==== 

    |psi|^2 = 0.004
==== e(  10) =     5.56140 eV ==== 
     psi = 0.004*[#   2]+0.004*[#   6]
    |psi|^2 = 0.008
==== e(  11) =     5.95269 eV ==== 
     psi = 0.136*[#   3]+0.136*[#   4]+0.136*[#   7]+0.136*[#   8]+0.100*[#   1]
          +0.100*[#   5]
    |psi|^2 = 0.742
==== e(  12) =     6.26955 eV ==== 
     psi = 0.034*[#   3]+0.034*[#   4]+0.034*[#   7]+0.034*[#   8]+0.014*[#   1]
          +0.014*[#   5]
    |psi|^2 = 0.162
==== e(  13) =     7.20913 eV ==== 
     psi = 0.486*[#   2]+0.486*[#   6]
    |psi|^2 = 0.971
==== e(  14) =     8.21569 eV ==== 
     psi = 0.235*[#   3]+0.235*[#   4]+0.235*[#   7]+0.235*[#   8]
    |psi|^2 = 0.939
==== e(  15) =     8.54098 eV ==== 
     psi = 0.003*[#   2]+0.003*[#   6]
    |psi|^2 = 0.006
==== e(  16) =     9.35994 eV ==== 
     psi = 0.001*[#   3]+0.001*[#   4]+0.001*[#   7]+0.001*[#   8]
    |psi|^2 = 0.007

 k =   0.0000000000  0.1924500897  0.0000000000
==== e(   1) =   -21.21779 eV ==== 
     psi = 0.404*[#   1]+0.404*[#   5]+0.043*[#   3]+0.043*[#   4]+0.043*[#   7]
          +0.043*[#   8]
    |psi|^2 = 0.982
==== e(   2) =    -9.18857 eV ==== 
     psi = 0.482*[#   2]+0.482*[#   6]
    |psi|^2 = 0.963
==== e(   3) =    -7.69821 eV ==== 
     psi = 0.221*[#   3]+0.221*[#   4]+0.221*[#   7]+0.221*[#   8]+0.055*[#   1]
          +0.055*[#   5]
    |psi|^2 = 0.995
==== e(   4) =    -6.53958 eV ==== 
     psi = 0.249*[#   3]+0.249*[#   4]+0.249*[#   7]+0.249*[#   8]
    |psi|^2 = 0.997
==== e(   5) =     1.74063 eV ==== 
     psi = 0.009*[#   3]+0.009*[#   4]+0.009*[#   7]+0.009*[#   8]
    |psi|^2 = 0.035
==== e(   6) =     2.41904 eV ==== 
     psi = 0.006*[#   2]+0.006*[#   6]
    |psi|^2 = 0.012
==== e(   7) =     2.55535 eV ==== 

    |psi|^2 = 0.004
==== e(   8) =     3.55503 eV ==== 
     psi = 0.005*[#   2]+0.005*[#   6]
    |psi|^2 = 0.010
==== e(   9) =     3.98821 eV ==== 

    |psi|^2 = 0.004
==== e(  10) =     5.66846 eV ==== 
     psi = 0.004*[#   2]+0.004*[#   6]
    |psi|^2 = 0.008
==== e(  11) =     5.94203 eV ==== 
     psi = 0.142*[#   3]+0.142*[#   4]+0.142*[#   7]+0.142*[#   8]+0.118*[#   1]
          +0.118*[#   5]
    |psi|^2 = 0.802
==== e(  12) =     6.36751 eV ==== 
     psi = 0.021*[#   3]+0.021*[#   4]+0.021*[#   7]+0.021*[#   8]+0.009*[#   1]
          +0.009*[#   5]
    |psi|^2 = 0.101
==== e(  13) =     6.98283 eV ==== 
     psi = 0.484*[#   2]+0.484*[#   6]
    |psi|^2 = 0.969
==== e(  14) =     8.49257 eV ==== 
     psi = 0.234*[#   3]+0.234*[#   4]+0.234*[#   7]+0.234*[#   8]
    |psi|^2 = 0.937
==== e(  15) =     8.64693 eV ==== 
     psi = 0.003*[#   2]+0.003*[#   6]
    |psi|^2 = 0.006
==== e(  16) =     9.46794 eV ==== 
     psi = 0.001*[#   3]+0.001*[#   4]+0.001*[#   7]+0.001*[#   8]
    |psi|^2 = 0.007

 k =   0.0000000000  0.2044782203  0.0000000000
==== e(   1) =   -21.13394 eV ==== 
     psi = 0.397*[#   1]+0.397*[#   5]+0.047*[#   3]+0.047*[#   4]+0.047*[#   7]
          +0.047*[#   8]
    |psi|^2 = 0.982
==== e(   2) =    -9.08943 eV ==== 
     psi = 0.483*[#   2]+0.483*[#   6]
    |psi|^2 = 0.965
==== e(   3) =    -7.94449 eV ==== 
     psi = 0.219*[#   3]+0.219*[#   4]+0.219*[#   7]+0.219*[#   8]+0.060*[#   1]
          +0.060*[#   5]
    |psi|^2 = 0.994
==== e(   4) =    -6.65095 eV ==== 
     psi = 0.249*[#   3]+0.249*[#   4]+0.249*[#   7]+0.249*[#   8]
    |psi|^2 = 0.997
==== e(   5) =     1.85560 eV ==== 
     psi = 0.009*[#   3]+0.009*[#   4]+0.009*[#   7]+0.009*[#   8]
    |psi|^2 = 0.036
==== e(   6) =     2.53534 eV ==== 
     psi = 0.006*[#   2]+0.006*[#   6]
    |psi|^2 = 0.011
==== e(   7) =     2.67279 eV ==== 

    |psi|^2 = 0.004
==== e(   8) =     3.67078 eV ==== 
     psi = 0.005*[#   2]+0.005*[#   6]
    |psi|^2 = 0.010
==== e(   9) =     4.10437 eV ==== 

    |psi|^2 = 0.004
==== e(  10) =     5.78149 eV ==== 
     psi = 0.005*[#   2]+0.005*[#   6]
    |psi|^2 = 0.010
==== e(  11) =     5.92336 eV ==== 
     psi = 0.142*[#   3]+0.142*[#   4]+0.142*[#   7]+0.142*[#   8]+0.133*[#   1]
          +0.133*[#   5]
    |psi|^2 = 0.832
==== e(  12) =     6.47663 eV ==== 
     psi = 0.014*[#   3]+0.014*[#   4]+0.014*[#   7]+0.014*[#   8]+0.006*[#   1]
          +0.006*[#   5]
    |psi|^2 = 0.069
==== e(  13) =     6.74855 eV ==== 
     psi = 0.482*[#   2]+0.482*[#   6]
    |psi|^2 = 0.964
==== e(  14) =     8.75960 eV ==== 
     psi = 0.003*[#   2]+0.003*[#   6]
    |psi|^2 = 0.005
==== e(  15) =     8.78036 eV ==== 
     psi = 0.234*[#   3]+0.234*[#   4]+0.234*[#   7]+0.234*[#   8]
    |psi|^2 = 0.936
==== e(  16) =     9.58277 eV ==== 
     psi = 0.001*[#   3]+0.001*[#   4]+0.001*[#   7]+0.001*[#   8]
    |psi|^2 = 0.007

 k =   0.0000000000  0.2165063509  0.0000000000
==== e(   1) =   -21.04509 eV ==== 
     psi = 0.389*[#   1]+0.389*[#   5]+0.051*[#   3]+0.051*[#   4]+0.051*[#   7]
          +0.051*[#   8]
    |psi|^2 = 0.982
==== e(   2) =    -8.98459 eV ==== 
     psi = 0.483*[#   2]+0.483*[#   6]
    |psi|^2 = 0.967
==== e(   3) =    -8.19680 eV ==== 
     psi = 0.216*[#   3]+0.216*[#   4]+0.216*[#   7]+0.216*[#   8]+0.065*[#   1]
          +0.065*[#   5]
    |psi|^2 = 0.994
==== e(   4) =    -6.76288 eV ==== 
     psi = 0.249*[#   3]+0.249*[#   4]+0.249*[#   7]+0.249*[#   8]
    |psi|^2 = 0.997
==== e(   5) =     1.97751 eV ==== 
     psi = 0.009*[#   3]+0.009*[#   4]+0.009*[#   7]+0.009*[#   8]
    |psi|^2 = 0.036
==== e(   6) =     2.65860 eV ==== 
     psi = 0.005*[#   2]+0.005*[#   6]
    |psi|^2 = 0.011
==== e(   7) =     2.79734 eV ==== 

    |psi|^2 = 0.004
==== e(   8) =     3.79336 eV ==== 
     psi = 0.005*[#   2]+0.005*[#   6]
    |psi|^2 = 0.009
==== e(   9) =     4.22750 eV ==== 

    |psi|^2 = 0.004
==== e(  10) =     5.89866 eV ==== 
     psi = 0.010*[#   2]+0.010*[#   6]
    |psi|^2 = 0.019
==== e(  11) =     5.89901 eV ==== 
     psi = 0.147*[#   1]+0.147*[#   5]+0.139*[#   3]+0.139*[#   4]+0.139*[#   7]
          +0.139*[#   8]
    |psi|^2 = 0.850
==== e(  12) =     6.50893 eV ==== 
     psi = 0.476*[#   2]+0.476*[#   6]
    |psi|^2 = 0.953
==== e(  13) =     6.59492 eV ==== 
     psi = 0.010*[#   3]+0.010*[#   4]+0.010*[#   7]+0.010*[#   8]+0.004*[#   1]
          +0.004*[#   5]
    |psi|^2 = 0.050
==== e(  14) =     8.87895 eV ==== 
     psi = 0.003*[#   2]+0.003*[#   6]
    |psi|^2 = 0.005
==== e(  15) =     9.07818 eV ==== 
     psi = 0.234*[#   3]+0.234*[#   4]+0.234*[#   7]+0.234*[#   8]
    |psi|^2 = 0.934
==== e(  16) =     9.70443 eV ==== 
     psi = 0.001*[#   3]+0.001*[#   4]+0.001*[#   7]+0.001*[#   8]
    |psi|^2 = 0.007

 k =   0.0000000000  0.2285344816  0.0000000000
==== e(   1) =   -20.95128 eV ==== 
     psi = 0.382*[#   1]+0.382*[#   5]+0.055*[#   3]+0.055*[#   4]+0.055*[#   7]
          +0.055*[#   8]
    |psi|^2 = 0.982
==== e(   2) =    -8.87410 eV ==== 
     psi = 0.484*[#   2]+0.484*[#   6]
    |psi|^2 = 0.969
==== e(   3) =    -8.45432 eV ==== 
     psi = 0.214*[#   3]+0.214*[#   4]+0.214*[#   7]+0.214*[#   8]+0.070*[#   1]
          +0.070*[#   5]
    |psi|^2 = 0.994
==== e(   4) =    -6.87480 eV ==== 
     psi = 0.249*[#   3]+0.249*[#   4]+0.249*[#   7]+0.249*[#   8]
    |psi|^2 = 0.997
==== e(   5) =     2.10634 eV ==== 
     psi = 0.009*[#   3]+0.009*[#   4]+0.009*[#   7]+0.009*[#   8]
    |psi|^2 = 0.036
==== e(   6) =     2.78877 eV ==== 
     psi = 0.005*[#   2]+0.005*[#   6]
    |psi|^2 = 0.010
==== e(   7) =     2.92900 eV ==== 

    |psi|^2 = 0.004
==== e(   8) =     3.92269 eV ==== 
     psi = 0.004*[#   2]+0.004*[#   6]
    |psi|^2 = 0.009
==== e(   9) =     4.35757 eV ==== 

    |psi|^2 = 0.003
==== e(  10) =     5.87038 eV ==== 
     psi = 0.160*[#   1]+0.160*[#   5]+0.135*[#   3]+0.135*[#   4]+0.135*[#   7]
          +0.135*[#   8]
    |psi|^2 = 0.861
==== e(  11) =     6.00760 eV ==== 
     psi = 0.052*[#   2]+0.052*[#   6]
    |psi|^2 = 0.105
==== e(  12) =     6.27721 eV ==== 
     psi = 0.432*[#   2]+0.432*[#   6]
    |psi|^2 = 0.864
==== e(  13) =     6.72145 eV ==== 
     psi = 0.008*[#   3]+0.008*[#   4]+0.008*[#   7]+0.008*[#   8]+0.003*[#   1]
          +0.003*[#   5]
    |psi|^2 = 0.039
==== e(  14) =     9.00494 eV ==== 
     psi = 0.003*[#   2]+0.003*[#   6]
    |psi|^2 = 0.005
==== e(  15) =     9.38529 eV ==== 
     psi = 0.233*[#   3]+0.233*[#   4]+0.233*[#   7]+0.233*[#   8]
    |psi|^2 = 0.932
==== e(  16) =     9.83292 eV ==== 
     psi = 0.001*[#   3]+0.001*[#   4]+0.001*[#   7]+0.001*[#   8]
    |psi|^2 = 0.006

 k =   0.0000000000  0.2405626122  0.0000000000
==== e(   1) =   -20.85250 eV ==== 
     psi = 0.374*[#   1]+0.374*[#   5]+0.058*[#   3]+0.058*[#   4]+0.058*[#   7]
          +0.058*[#   8]
    |psi|^2 = 0.982
==== e(   2) =    -8.75804 eV ==== 
     psi = 0.485*[#   2]+0.485*[#   6]
    |psi|^2 = 0.971
==== e(   3) =    -8.71629 eV ==== 
     psi = 0.211*[#   3]+0.211*[#   4]+0.211*[#   7]+0.211*[#   8]+0.075*[#   1]
          +0.075*[#   5]
    |psi|^2 = 0.993
==== e(   4) =    -6.98623 eV ==== 
     psi = 0.249*[#   3]+0.249*[#   4]+0.249*[#   7]+0.249*[#   8]
    |psi|^2 = 0.997
==== e(   5) =     2.24209 eV ==== 
     psi = 0.009*[#   3]+0.009*[#   4]+0.009*[#   7]+0.009*[#   8]
    |psi|^2 = 0.036
==== e(   6) =     2.92579 eV ==== 
     psi = 0.005*[#   2]+0.005*[#   6]
    |psi|^2 = 0.010
==== e(   7) =     3.06778 eV ==== 

    |psi|^2 = 0.004
==== e(   8) =     4.05858 eV ==== 
     psi = 0.005*[#   2]+0.005*[#   6]
    |psi|^2 = 0.009
==== e(   9) =     4.49451 eV ==== 

    |psi|^2 = 0.003
==== e(  10) =     5.83844 eV ==== 
     psi = 0.173*[#   1]+0.173*[#   5]+0.131*[#   3]+0.131*[#   4]+0.131*[#   7]
          +0.131*[#   8]
    |psi|^2 = 0.869
==== e(  11) =     5.95095 eV ==== 
     psi = 0.406*[#   2]+0.406*[#   6]
    |psi|^2 = 0.811
==== e(  12) =     6.21169 eV ==== 
     psi = 0.077*[#   2]+0.077*[#   6]
    |psi|^2 = 0.155
==== e(  13) =     6.85573 eV ==== 
     psi = 0.007*[#   3]+0.007*[#   4]+0.007*[#   7]+0.007*[#   8]+0.003*[#   1]
          +0.003*[#   5]
    |psi|^2 = 0.031
==== e(  14) =     9.13752 eV ==== 
     psi = 0.002*[#   2]+0.002*[#   6]
    |psi|^2 = 0.005
==== e(  15) =     9.70088 eV ==== 
     psi = 0.233*[#   3]+0.233*[#   4]+0.233*[#   7]+0.233*[#   8]
    |psi|^2 = 0.931
==== e(  16) =     9.96823 eV ==== 
     psi = 0.001*[#   3]+0.001*[#   4]+0.001*[#   7]+0.001*[#   8]
    |psi|^2 = 0.006

 k =   0.0000000000  0.2525907428  0.0000000000
==== e(   1) =   -20.74879 eV ==== 
     psi = 0.367*[#   1]+0.367*[#   5]+0.062*[#   3]+0.062*[#   4]+0.062*[#   7]
          +0.062*[#   8]
    |psi|^2 = 0.982
==== e(   2) =    -8.98201 eV ==== 
     psi = 0.208*[#   3]+0.208*[#   4]+0.208*[#   7]+0.208*[#   8]+0.080*[#   1]
          +0.080*[#   5]
    |psi|^2 = 0.993
==== e(   3) =    -8.63648 eV ==== 
     psi = 0.486*[#   2]+0.486*[#   6]
    |psi|^2 = 0.973
==== e(   4) =    -7.09671 eV ==== 
     psi = 0.249*[#   3]+0.249*[#   4]+0.249*[#   7]+0.249*[#   8]
    |psi|^2 = 0.997
==== e(   5) =     2.38475 eV ==== 
     psi = 0.009*[#   3]+0.009*[#   4]+0.009*[#   7]+0.009*[#   8]
    |psi|^2 = 0.035
==== e(   6) =     3.06956 eV ==== 
     psi = 0.005*[#   2]+0.005*[#   6]
    |psi|^2 = 0.010
==== e(   7) =     3.21366 eV ==== 

    |psi|^2 = 0.003
==== e(   8) =     4.20063 eV ==== 
     psi = 0.005*[#   2]+0.005*[#   6]
    |psi|^2 = 0.010
==== e(   9) =     4.63823 eV ==== 

    |psi|^2 = 0.003
==== e(  10) =     5.70968 eV ==== 
     psi = 0.464*[#   2]+0.464*[#   6]
    |psi|^2 = 0.927
==== e(  11) =     5.80399 eV ==== 
     psi = 0.185*[#   1]+0.185*[#   5]+0.126*[#   3]+0.126*[#   4]+0.126*[#   7]
          +0.126*[#   8]
    |psi|^2 = 0.874
==== e(  12) =     6.33259 eV ==== 
     psi = 0.017*[#   2]+0.017*[#   6]
    |psi|^2 = 0.035
==== e(  13) =     6.99751 eV ==== 
     psi = 0.005*[#   3]+0.005*[#   4]+0.005*[#   7]+0.005*[#   8]+0.002*[#   1]
          +0.002*[#   5]
    |psi|^2 = 0.026
==== e(  14) =     9.27665 eV ==== 
     psi = 0.002*[#   2]+0.002*[#   6]
    |psi|^2 = 0.005
==== e(  15) =    10.02416 eV ==== 
     psi = 0.232*[#   3]+0.232*[#   4]+0.232*[#   7]+0.232*[#   8]
    |psi|^2 = 0.929
==== e(  16) =    10.11036 eV ==== 
     psi = 0.001*[#   3]+0.001*[#   4]+0.001*[#   7]+0.001*[#   8]
    |psi|^2 = 0.006

 k =   0.0000000000  0.2646188734  0.0000000000
==== e(   1) =   -20.64019 eV ==== 
     psi = 0.360*[#   1]+0.360*[#   5]+0.065*[#   3]+0.065*[#   4]+0.065*[#   7]
          +0.065*[#   8]
    |psi|^2 = 0.981
==== e(   2) =    -9.25082 eV ==== 
     psi = 0.206*[#   3]+0.206*[#   4]+0.206*[#   7]+0.206*[#   8]+0.085*[#   1]
          +0.085*[#   5]
    |psi|^2 = 0.993
==== e(   3) =    -8.50953 eV ==== 
     psi = 0.487*[#   2]+0.487*[#   6]
    |psi|^2 = 0.975
==== e(   4) =    -7.20582 eV ==== 
     psi = 0.249*[#   3]+0.249*[#   4]+0.249*[#   7]+0.249*[#   8]
    |psi|^2 = 0.997
==== e(   5) =     2.53430 eV ==== 
     psi = 0.009*[#   3]+0.009*[#   4]+0.009*[#   7]+0.009*[#   8]
    |psi|^2 = 0.035
==== e(   6) =     3.21989 eV ==== 
     psi = 0.005*[#   2]+0.005*[#   6]
    |psi|^2 = 0.010
==== e(   7) =     3.36665 eV ==== 

    |psi|^2 = 0.003
==== e(   8) =     4.34786 eV ==== 
     psi = 0.007*[#   2]+0.007*[#   6]
    |psi|^2 = 0.014
==== e(   9) =     4.78854 eV ==== 
     psi = 0.001*[#   1]+0.001*[#   5]
    |psi|^2 = 0.004
==== e(  10) =     5.44846 eV ==== 
     psi = 0.468*[#   2]+0.468*[#   6]
    |psi|^2 = 0.937
==== e(  11) =     5.76782 eV ==== 
     psi = 0.196*[#   1]+0.196*[#   5]+0.122*[#   3]+0.122*[#   4]+0.122*[#   7]
          +0.122*[#   8]
    |psi|^2 = 0.878
==== e(  12) =     6.47709 eV ==== 
     psi = 0.009*[#   2]+0.009*[#   6]
    |psi|^2 = 0.018
==== e(  13) =     7.14660 eV ==== 
     psi = 0.005*[#   3]+0.005*[#   4]+0.005*[#   7]+0.005*[#   8]+0.002*[#   1]
          +0.002*[#   5]
    |psi|^2 = 0.022
==== e(  14) =     9.42226 eV ==== 
     psi = 0.002*[#   2]+0.002*[#   6]
    |psi|^2 = 0.005
==== e(  15) =    10.25929 eV ==== 
     psi = 0.001*[#   3]+0.001*[#   4]+0.001*[#   7]+0.001*[#   8]
    |psi|^2 = 0.006
==== e(  16) =    10.35439 eV ==== 
     psi = 0.232*[#   3]+0.232*[#   4]+0.232*[#   7]+0.232*[#   8]
    |psi|^2 = 0.928

 k =   0.0000000000  0.2766470040  0.0000000000
==== e(   1) =   -20.52669 eV ==== 
     psi = 0.353*[#   1]+0.353*[#   5]+0.069*[#   3]+0.069*[#   4]+0.069*[#   7]
          +0.069*[#   8]
    |psi|^2 = 0.981
==== e(   2) =    -9.52217 eV ==== 
     psi = 0.203*[#   3]+0.203*[#   4]+0.203*[#   7]+0.203*[#   8]+0.089*[#   1]
          +0.089*[#   5]
    |psi|^2 = 0.992
==== e(   3) =    -8.37727 eV ==== 
     psi = 0.488*[#   2]+0.488*[#   6]
    |psi|^2 = 0.977
==== e(   4) =    -7.31316 eV ==== 
     psi = 0.249*[#   3]+0.249*[#   4]+0.249*[#   7]+0.249*[#   8]
    |psi|^2 = 0.997
==== e(   5) =     2.69073 eV ==== 
     psi = 0.008*[#   3]+0.008*[#   4]+0.008*[#   7]+0.008*[#   8]
    |psi|^2 = 0.033
==== e(   6) =     3.37643 eV ==== 
     psi = 0.005*[#   2]+0.005*[#   6]
    |psi|^2 = 0.010
==== e(   7) =     3.52674 eV ==== 

    |psi|^2 = 0.003
==== e(   8) =     4.49681 eV ==== 
     psi = 0.015*[#   2]+0.015*[#   6]
    |psi|^2 = 0.030
==== e(   9) =     4.94507 eV ==== 
     psi = 0.002*[#   1]+0.002*[#   5]
    |psi|^2 = 0.005
==== e(  10) =     5.18558 eV ==== 
     psi = 0.461*[#   2]+0.461*[#   6]
    |psi|^2 = 0.922
==== e(  11) =     5.73082 eV ==== 
     psi = 0.206*[#   1]+0.206*[#   5]+0.117*[#   3]+0.117*[#   4]+0.117*[#   7]
          +0.117*[#   8]
    |psi|^2 = 0.880
==== e(  12) =     6.63138 eV ==== 
     psi = 0.006*[#   2]+0.006*[#   6]
    |psi|^2 = 0.013
==== e(  13) =     7.30291 eV ==== 
     psi = 0.004*[#   3]+0.004*[#   4]+0.004*[#   7]+0.004*[#   8]+0.001*[#   1]
          +0.001*[#   5]
    |psi|^2 = 0.019
==== e(  14) =     9.57428 eV ==== 
     psi = 0.002*[#   2]+0.002*[#   6]
    |psi|^2 = 0.004
==== e(  15) =    10.41503 eV ==== 

    |psi|^2 = 0.006
==== e(  16) =    10.69074 eV ==== 
     psi = 0.232*[#   3]+0.232*[#   4]+0.232*[#   7]+0.232*[#   8]
    |psi|^2 = 0.927

 k =   0.0000000000  0.2886751346  0.0000000000
==== e(   1) =   -20.40834 eV ==== 
     psi = 0.347*[#   1]+0.347*[#   5]+0.072*[#   3]+0.072*[#   4]+0.072*[#   7]
          +0.072*[#   8]
    |psi|^2 = 0.981
==== e(   2) =    -9.79547 eV ==== 
     psi = 0.201*[#   3]+0.201*[#   4]+0.201*[#   7]+0.201*[#   8]+0.094*[#   1]
          +0.094*[#   5]
    |psi|^2 = 0.992
==== e(   3) =    -8.23984 eV ==== 
     psi = 0.489*[#   2]+0.489*[#   6]
    |psi|^2 = 0.979
==== e(   4) =    -7.41838 eV ==== 
     psi = 0.249*[#   3]+0.249*[#   4]+0.249*[#   7]+0.249*[#   8]
    |psi|^2 = 0.997
==== e(   5) =     2.85401 eV ==== 
     psi = 0.008*[#   3]+0.008*[#   4]+0.008*[#   7]+0.008*[#   8]
    |psi|^2 = 0.032
==== e(   6) =     3.53832 eV ==== 
     psi = 0.007*[#   2]+0.007*[#   6]
    |psi|^2 = 0.013
==== e(   7) =     3.69392 eV ==== 

    |psi|^2 = 0.003
==== e(   8) =     4.62489 eV ==== 
     psi = 0.081*[#   2]+0.081*[#   6]
    |psi|^2 = 0.163
==== e(   9) =     4.94709 eV ==== 
     psi = 0.393*[#   2]+0.393*[#   6]
    |psi|^2 = 0.786
==== e(  10) =     5.10693 eV ==== 
     psi = 0.005*[#   1]+0.005*[#   5]
    |psi|^2 = 0.011
==== e(  11) =     5.69439 eV ==== 
     psi = 0.214*[#   1]+0.214*[#   5]+0.113*[#   3]+0.113*[#   4]+0.113*[#   7]
          +0.113*[#   8]
    |psi|^2 = 0.878
==== e(  12) =     6.79349 eV ==== 
     psi = 0.005*[#   2]+0.005*[#   6]
    |psi|^2 = 0.010
==== e(  13) =     7.46637 eV ==== 
     psi = 0.003*[#   3]+0.003*[#   4]+0.003*[#   7]+0.003*[#   8]+0.001*[#   1]
          +0.001*[#   5]
    |psi|^2 = 0.016
==== e(  14) =     9.73263 eV ==== 
     psi = 0.002*[#   2]+0.002*[#   6]
    |psi|^2 = 0.004
==== e(  15) =    10.57754 eV ==== 

    |psi|^2 = 0.005
==== e(  16) =    11.03245 eV ==== 
     psi = 0.231*[#   3]+0.231*[#   4]+0.231*[#   7]+0.231*[#   8]
    |psi|^2 = 0.925

 k =   0.0000000000  0.3007032652  0.0000000000
==== e(   1) =   -20.28516 eV ==== 
     psi = 0.341*[#   1]+0.341*[#   5]+0.075*[#   3]+0.075*[#   4]+0.075*[#   7]
          +0.075*[#   8]
    |psi|^2 = 0.981
==== e(   2) =   -10.07020 eV ==== 
     psi = 0.199*[#   3]+0.199*[#   4]+0.199*[#   7]+0.199*[#   8]+0.099*[#   1]
          +0.099*[#   5]
    |psi|^2 = 0.992
==== e(   3) =    -8.09735 eV ==== 
     psi = 0.490*[#   2]+0.490*[#   6]
    |psi|^2 = 0.981
==== e(   4) =    -7.52117 eV ==== 
     psi = 0.249*[#   3]+0.249*[#   4]+0.249*[#   7]+0.249*[#   8]
    |psi|^2 = 0.997
==== e(   5) =     3.02412 eV ==== 
     psi = 0.007*[#   3]+0.007*[#   4]+0.007*[#   7]+0.007*[#   8]
    |psi|^2 = 0.030
==== e(   6) =     3.70299 eV ==== 
     psi = 0.012*[#   2]+0.012*[#   6]
    |psi|^2 = 0.024
==== e(   7) =     3.86819 eV ==== 

    |psi|^2 = 0.002
==== e(   8) =     4.55764 eV ==== 
     psi = 0.386*[#   2]+0.386*[#   6]
    |psi|^2 = 0.773
==== e(   9) =     4.91126 eV ==== 
     psi = 0.082*[#   2]+0.082*[#   6]
    |psi|^2 = 0.164
==== e(  10) =     5.27122 eV ==== 
     psi = 0.013*[#   1]+0.013*[#   5]+0.002*[#   3]+0.002*[#   4]+0.002*[#   7]
          +0.002*[#   8]
    |psi|^2 = 0.032
==== e(  11) =     5.66185 eV ==== 
     psi = 0.216*[#   1]+0.216*[#   5]+0.107*[#   3]+0.107*[#   4]+0.107*[#   7]
          +0.107*[#   8]
    |psi|^2 = 0.859
==== e(  12) =     6.96286 eV ==== 
     psi = 0.004*[#   2]+0.004*[#   6]
    |psi|^2 = 0.009
==== e(  13) =     7.63690 eV ==== 
     psi = 0.003*[#   3]+0.003*[#   4]+0.003*[#   7]+0.003*[#   8]+0.001*[#   1]
          +0.001*[#   5]
    |psi|^2 = 0.014
==== e(  14) =     9.89723 eV ==== 
     psi = 0.002*[#   2]+0.002*[#   6]
    |psi|^2 = 0.004
==== e(  15) =    10.74683 eV ==== 

    |psi|^2 = 0.005
==== e(  16) =    11.37872 eV ==== 
     psi = 0.231*[#   3]+0.231*[#   4]+0.231*[#   7]+0.231*[#   8]
    |psi|^2 = 0.924

 k =   0.0000000000  0.3127313958  0.0000000000
==== e(   1) =   -20.15720 eV ==== 
     psi = 0.334*[#   1]+0.334*[#   5]+0.078*[#   3]+0.078*[#   4]+0.078*[#   7]
          +0.078*[#   8]
    |psi|^2 = 0.981
==== e(   2) =   -10.34588 eV ==== 
     psi = 0.196*[#   3]+0.196*[#   4]+0.196*[#   7]+0.196*[#   8]+0.103*[#   1]
          +0.103*[#   5]
    |psi|^2 = 0.992
==== e(   3) =    -7.94996 eV ==== 
     psi = 0.491*[#   2]+0.491*[#   6]
    |psi|^2 = 0.982
==== e(   4) =    -7.62124 eV ==== 
     psi = 0.249*[#   3]+0.249*[#   4]+0.249*[#   7]+0.249*[#   8]
    |psi|^2 = 0.997
==== e(   5) =     3.20103 eV ==== 
     psi = 0.007*[#   3]+0.007*[#   4]+0.007*[#   7]+0.007*[#   8]
    |psi|^2 = 0.028
==== e(   6) =     3.85793 eV ==== 
     psi = 0.044*[#   2]+0.044*[#   6]
    |psi|^2 = 0.087
==== e(   7) =     4.04952 eV ==== 

    |psi|^2 = 0.002
==== e(   8) =     4.32699 eV ==== 
     psi = 0.415*[#   2]+0.415*[#   6]
    |psi|^2 = 0.831
==== e(   9) =     5.05951 eV ==== 
     psi = 0.021*[#   2]+0.021*[#   6]
    |psi|^2 = 0.042
==== e(  10) =     5.42411 eV ==== 
     psi = 0.053*[#   1]+0.053*[#   5]+0.014*[#   3]+0.014*[#   4]+0.014*[#   7]
          +0.014*[#   8]
    |psi|^2 = 0.160
==== e(  11) =     5.64745 eV ==== 
     psi = 0.186*[#   1]+0.186*[#   5]+0.091*[#   3]+0.091*[#   4]+0.091*[#   7]
          +0.091*[#   8]
    |psi|^2 = 0.734
==== e(  12) =     7.13924 eV ==== 
     psi = 0.004*[#   2]+0.004*[#   6]
    |psi|^2 = 0.008
==== e(  13) =     7.81448 eV ==== 
     psi = 0.003*[#   3]+0.003*[#   4]+0.003*[#   7]+0.003*[#   8]
    |psi|^2 = 0.012
==== e(  14) =    10.06794 eV ==== 
     psi = 0.002*[#   2]+0.002*[#   6]
    |psi|^2 = 0.004
==== e(  15) =    10.92285 eV ==== 

    |psi|^2 = 0.005
==== e(  16) =    11.72871 eV ==== 
     psi = 0.231*[#   3]+0.231*[#   4]+0.231*[#   7]+0.231*[#   8]
    |psi|^2 = 0.923

 k =   0.0000000000  0.3247595264  0.0000000000
==== e(   1) =   -20.02447 eV ==== 
     psi = 0.328*[#   1]+0.328*[#   5]+0.081*[#   3]+0.081*[#   4]+0.081*[#   7]
          +0.081*[#   8]
    |psi|^2 = 0.981
==== e(   2) =   -10.62208 eV ==== 
     psi = 0.194*[#   3]+0.194*[#   4]+0.194*[#   7]+0.194*[#   8]+0.108*[#   1]
          +0.108*[#   5]
    |psi|^2 = 0.991
==== e(   3) =    -7.79784 eV ==== 
     psi = 0.492*[#   2]+0.492*[#   6]
    |psi|^2 = 0.984
==== e(   4) =    -7.71831 eV ==== 
     psi = 0.249*[#   3]+0.249*[#   4]+0.249*[#   7]+0.249*[#   8]
    |psi|^2 = 0.997
==== e(   5) =     3.38469 eV ==== 
     psi = 0.006*[#   3]+0.006*[#   4]+0.006*[#   7]+0.006*[#   8]
    |psi|^2 = 0.026
==== e(   6) =     3.89376 eV ==== 
     psi = 0.296*[#   2]+0.296*[#   6]
    |psi|^2 = 0.592
==== e(   7) =     4.19776 eV ==== 
     psi = 0.172*[#   2]+0.172*[#   6]
    |psi|^2 = 0.345
==== e(   8) =     4.23790 eV ==== 

    |psi|^2 = 0.002
==== e(   9) =     5.23717 eV ==== 
     psi = 0.011*[#   2]+0.011*[#   6]
    |psi|^2 = 0.021
==== e(  10) =     5.50066 eV ==== 
     psi = 0.183*[#   1]+0.183*[#   5]+0.063*[#   3]+0.063*[#   4]+0.063*[#   7]
          +0.063*[#   8]
    |psi|^2 = 0.620
==== e(  11) =     5.71654 eV ==== 
     psi = 0.064*[#   1]+0.064*[#   5]+0.037*[#   3]+0.037*[#   4]+0.037*[#   7]
          +0.037*[#   8]
    |psi|^2 = 0.276
==== e(  12) =     7.32250 eV ==== 
     psi = 0.003*[#   2]+0.003*[#   6]
    |psi|^2 = 0.007
==== e(  13) =     7.99907 eV ==== 
     psi = 0.002*[#   3]+0.002*[#   4]+0.002*[#   7]+0.002*[#   8]
    |psi|^2 = 0.011
==== e(  14) =    10.24464 eV ==== 
     psi = 0.002*[#   2]+0.002*[#   6]
    |psi|^2 = 0.004
==== e(  15) =    11.10559 eV ==== 
     psi = 0.001*[#   1]+0.001*[#   5]
    |psi|^2 = 0.005
==== e(  16) =    12.08152 eV ==== 
     psi = 0.231*[#   3]+0.231*[#   4]+0.231*[#   7]+0.231*[#   8]
    |psi|^2 = 0.923

 k =   0.0000000000  0.3367876570  0.0000000000
==== e(   1) =   -19.88704 eV ==== 
     psi = 0.323*[#   1]+0.323*[#   5]+0.084*[#   3]+0.084*[#   4]+0.084*[#   7]
          +0.084*[#   8]
    |psi|^2 = 0.981
==== e(   2) =   -10.89836 eV ==== 
     psi = 0.192*[#   3]+0.192*[#   4]+0.192*[#   7]+0.192*[#   8]+0.112*[#   1]
          +0.112*[#   5]
    |psi|^2 = 0.991
==== e(   3) =    -7.81215 eV ==== 
     psi = 0.249*[#   3]+0.249*[#   4]+0.249*[#   7]+0.249*[#   8]
    |psi|^2 = 0.997
==== e(   4) =    -7.64120 eV ==== 
     psi = 0.493*[#   2]+0.493*[#   6]
    |psi|^2 = 0.986
==== e(   5) =     3.57505 eV ==== 
     psi = 0.006*[#   3]+0.006*[#   4]+0.006*[#   7]+0.006*[#   8]
    |psi|^2 = 0.023
==== e(   6) =     3.67714 eV ==== 
     psi = 0.438*[#   2]+0.438*[#   6]
    |psi|^2 = 0.877
==== e(   7) =     4.32189 eV ==== 
     psi = 0.033*[#   2]+0.033*[#   6]
    |psi|^2 = 0.066
==== e(   8) =     4.43327 eV ==== 

    |psi|^2 = 0.002
==== e(   9) =     5.42637 eV ==== 
     psi = 0.007*[#   2]+0.007*[#   6]
    |psi|^2 = 0.014
==== e(  10) =     5.49031 eV ==== 
     psi = 0.239*[#   1]+0.239*[#   5]+0.084*[#   3]+0.084*[#   4]+0.084*[#   7]
          +0.084*[#   8]
    |psi|^2 = 0.813
==== e(  11) =     5.88009 eV ==== 
     psi = 0.017*[#   1]+0.017*[#   5]+0.013*[#   3]+0.013*[#   4]+0.013*[#   7]
          +0.013*[#   8]
    |psi|^2 = 0.085
==== e(  12) =     7.51255 eV ==== 
     psi = 0.003*[#   2]+0.003*[#   6]
    |psi|^2 = 0.006
==== e(  13) =     8.19063 eV ==== 
     psi = 0.002*[#   3]+0.002*[#   4]+0.002*[#   7]+0.002*[#   8]
    |psi|^2 = 0.009
==== e(  14) =    10.42714 eV ==== 
     psi = 0.002*[#   2]+0.002*[#   6]
    |psi|^2 = 0.004
==== e(  15) =    11.29501 eV ==== 
     psi = 0.001*[#   1]+0.001*[#   5]
    |psi|^2 = 0.005
==== e(  16) =    12.43626 eV ==== 
     psi = 0.231*[#   3]+0.231*[#   4]+0.231*[#   7]+0.231*[#   8]
    |psi|^2 = 0.922

 k =   0.0000000000  0.3488157876  0.0000000000
==== e(   1) =   -19.74493 eV ==== 
     psi = 0.317*[#   1]+0.317*[#   5]+0.087*[#   3]+0.087*[#   4]+0.087*[#   7]
          +0.087*[#   8]
    |psi|^2 = 0.981
==== e(   2) =   -11.17436 eV ==== 
     psi = 0.190*[#   3]+0.190*[#   4]+0.190*[#   7]+0.190*[#   8]+0.116*[#   1]
          +0.116*[#   5]
    |psi|^2 = 0.991
==== e(   3) =    -7.90254 eV ==== 
     psi = 0.249*[#   3]+0.249*[#   4]+0.249*[#   7]+0.249*[#   8]
    |psi|^2 = 0.997
==== e(   4) =    -7.48024 eV ==== 
     psi = 0.494*[#   2]+0.494*[#   6]
    |psi|^2 = 0.987
==== e(   5) =     3.40333 eV ==== 
     psi = 0.459*[#   2]+0.459*[#   6]
    |psi|^2 = 0.917
==== e(   6) =     3.77202 eV ==== 
     psi = 0.005*[#   3]+0.005*[#   4]+0.005*[#   7]+0.005*[#   8]
    |psi|^2 = 0.021
==== e(   7) =     4.50775 eV ==== 
     psi = 0.014*[#   2]+0.014*[#   6]
    |psi|^2 = 0.028
==== e(   8) =     4.63552 eV ==== 

    |psi|^2 = 0.002
==== e(   9) =     5.45987 eV ==== 
     psi = 0.257*[#   1]+0.257*[#   5]+0.086*[#   3]+0.086*[#   4]+0.086*[#   7]
          +0.086*[#   8]
    |psi|^2 = 0.859
==== e(  10) =     5.62414 eV ==== 
     psi = 0.005*[#   2]+0.005*[#   6]
    |psi|^2 = 0.011
==== e(  11) =     6.07176 eV ==== 
     psi = 0.007*[#   1]+0.007*[#   3]+0.007*[#   4]+0.007*[#   5]+0.007*[#   7]
          +0.007*[#   8]
    |psi|^2 = 0.042
==== e(  12) =     7.70932 eV ==== 
     psi = 0.003*[#   2]+0.003*[#   6]
    |psi|^2 = 0.006
==== e(  13) =     8.38913 eV ==== 
     psi = 0.002*[#   3]+0.002*[#   4]+0.002*[#   7]+0.002*[#   8]
    |psi|^2 = 0.008
==== e(  14) =    10.61523 eV ==== 
     psi = 0.002*[#   2]+0.002*[#   6]
    |psi|^2 = 0.004
==== e(  15) =    11.49107 eV ==== 
     psi = 0.001*[#   1]+0.001*[#   5]
    |psi|^2 = 0.005
==== e(  16) =    12.79190 eV ==== 
     psi = 0.230*[#   3]+0.230*[#   4]+0.230*[#   7]+0.230*[#   8]
    |psi|^2 = 0.922

 k =   0.0000000000  0.3608439182  0.0000000000
==== e(   1) =   -19.59820 eV ==== 
     psi = 0.312*[#   1]+0.312*[#   5]+0.089*[#   3]+0.089*[#   4]+0.089*[#   7]
          +0.089*[#   8]
    |psi|^2 = 0.981
==== e(   2) =   -11.44970 eV ==== 
     psi = 0.188*[#   3]+0.188*[#   4]+0.188*[#   7]+0.188*[#   8]+0.120*[#   1]
          +0.120*[#   5]
    |psi|^2 = 0.991
==== e(   3) =    -7.98927 eV ==== 
     psi = 0.249*[#   3]+0.249*[#   4]+0.249*[#   7]+0.249*[#   8]
    |psi|^2 = 0.997
==== e(   4) =    -7.31524 eV ==== 
     psi = 0.494*[#   2]+0.494*[#   6]
    |psi|^2 = 0.988
==== e(   5) =     3.11984 eV ==== 
     psi = 0.465*[#   2]+0.465*[#   6]
    |psi|^2 = 0.929
==== e(   6) =     3.97546 eV ==== 
     psi = 0.004*[#   3]+0.004*[#   4]+0.004*[#   7]+0.004*[#   8]
    |psi|^2 = 0.018
==== e(   7) =     4.70946 eV ==== 
     psi = 0.009*[#   2]+0.009*[#   6]
    |psi|^2 = 0.017
==== e(   8) =     4.84434 eV ==== 
     psi = 0.002*[#   1]+0.002*[#   5]
    |psi|^2 = 0.003
==== e(   9) =     5.42606 eV ==== 
     psi = 0.267*[#   1]+0.267*[#   5]+0.085*[#   3]+0.085*[#   4]+0.085*[#   7]
          +0.085*[#   8]
    |psi|^2 = 0.875
==== e(  10) =     5.82956 eV ==== 
     psi = 0.004*[#   2]+0.004*[#   6]
    |psi|^2 = 0.009
==== e(  11) =     6.27551 eV ==== 
     psi = 0.005*[#   3]+0.005*[#   4]+0.005*[#   7]+0.005*[#   8]+0.004*[#   1]
          +0.004*[#   5]
    |psi|^2 = 0.026
==== e(  12) =     7.91274 eV ==== 
     psi = 0.003*[#   2]+0.003*[#   6]
    |psi|^2 = 0.005
==== e(  13) =     8.59455 eV ==== 
     psi = 0.002*[#   3]+0.002*[#   4]+0.002*[#   7]+0.002*[#   8]
    |psi|^2 = 0.007
==== e(  14) =    10.80864 eV ==== 
     psi = 0.002*[#   2]+0.002*[#   6]
    |psi|^2 = 0.004
==== e(  15) =    11.69370 eV ==== 
     psi = 0.001*[#   1]+0.001*[#   5]
    |psi|^2 = 0.005
==== e(  16) =    13.14739 eV ==== 
     psi = 0.231*[#   3]+0.231*[#   4]+0.231*[#   7]+0.231*[#   8]
    |psi|^2 = 0.922

 k =   0.0000000000  0.3728720489  0.0000000000
==== e(   1) =   -19.44691 eV ==== 
     psi = 0.307*[#   1]+0.307*[#   5]+0.092*[#   3]+0.092*[#   4]+0.092*[#   7]
          +0.092*[#   8]
    |psi|^2 = 0.982
==== e(   2) =   -11.72405 eV ==== 
     psi = 0.186*[#   3]+0.186*[#   4]+0.186*[#   7]+0.186*[#   8]+0.124*[#   1]
          +0.124*[#   5]
    |psi|^2 = 0.990
==== e(   3) =    -8.07218 eV ==== 
     psi = 0.249*[#   3]+0.249*[#   4]+0.249*[#   7]+0.249*[#   8]
    |psi|^2 = 0.997
==== e(   4) =    -7.14652 eV ==== 
     psi = 0.495*[#   2]+0.495*[#   6]
    |psi|^2 = 0.990
==== e(   5) =     2.83388 eV ==== 
     psi = 0.467*[#   2]+0.467*[#   6]
    |psi|^2 = 0.934
==== e(   6) =     4.18512 eV ==== 
     psi = 0.003*[#   3]+0.003*[#   4]+0.003*[#   7]+0.003*[#   8]+0.001*[#   1]
          +0.001*[#   5]
    |psi|^2 = 0.016
==== e(   7) =     4.92086 eV ==== 
     psi = 0.006*[#   2]+0.006*[#   6]
    |psi|^2 = 0.012
==== e(   8) =     5.05850 eV ==== 
     psi = 0.005*[#   1]+0.005*[#   5]
    |psi|^2 = 0.011
==== e(   9) =     5.39382 eV ==== 
     psi = 0.271*[#   1]+0.271*[#   5]+0.083*[#   3]+0.083*[#   4]+0.083*[#   7]
          +0.083*[#   8]
    |psi|^2 = 0.875
==== e(  10) =     6.04227 eV ==== 
     psi = 0.004*[#   2]+0.004*[#   6]
    |psi|^2 = 0.007
==== e(  11) =     6.48809 eV ==== 
     psi = 0.003*[#   3]+0.003*[#   4]+0.003*[#   7]+0.003*[#   8]+0.002*[#   1]
          +0.002*[#   5]
    |psi|^2 = 0.018
==== e(  12) =     8.12273 eV ==== 
     psi = 0.002*[#   2]+0.002*[#   6]
    |psi|^2 = 0.005
==== e(  13) =     8.80685 eV ==== 
     psi = 0.001*[#   3]+0.001*[#   4]+0.001*[#   7]+0.001*[#   8]
    |psi|^2 = 0.006
==== e(  14) =    11.00698 eV ==== 
     psi = 0.002*[#   2]+0.002*[#   6]
    |psi|^2 = 0.005
==== e(  15) =    11.90283 eV ==== 
     psi = 0.001*[#   1]+0.001*[#   5]
    |psi|^2 = 0.005
==== e(  16) =    13.45552 eV ==== 
     psi = 0.154*[#   1]+0.154*[#   5]+0.054*[#   3]+0.054*[#   4]+0.054*[#   7]
          +0.054*[#   8]
    |psi|^2 = 0.526

 k =   0.0000000000  0.3849001795  0.0000000000
==== e(   1) =   -19.29111 eV ==== 
     psi = 0.302*[#   1]+0.302*[#   5]+0.094*[#   3]+0.094*[#   4]+0.094*[#   7]
          +0.094*[#   8]
    |psi|^2 = 0.982
==== e(   2) =   -11.99706 eV ==== 
     psi = 0.184*[#   3]+0.184*[#   4]+0.184*[#   7]+0.184*[#   8]+0.128*[#   1]
          +0.128*[#   5]
    |psi|^2 = 0.990
==== e(   3) =    -8.15108 eV ==== 
     psi = 0.249*[#   3]+0.249*[#   4]+0.249*[#   7]+0.249*[#   8]
    |psi|^2 = 0.997
==== e(   4) =    -6.97445 eV ==== 
     psi = 0.495*[#   2]+0.495*[#   6]
    |psi|^2 = 0.991
==== e(   5) =     2.54796 eV ==== 
     psi = 0.469*[#   2]+0.469*[#   6]
    |psi|^2 = 0.937
==== e(   6) =     4.40049 eV ==== 
     psi = 0.003*[#   1]+0.003*[#   5]+0.002*[#   3]+0.002*[#   4]+0.002*[#   7]
          +0.002*[#   8]
    |psi|^2 = 0.014
==== e(   7) =     5.14036 eV ==== 
     psi = 0.005*[#   2]+0.005*[#   6]
    |psi|^2 = 0.010
==== e(   8) =     5.26448 eV ==== 
     psi = 0.061*[#   1]+0.061*[#   5]+0.012*[#   3]+0.012*[#   4]+0.012*[#   7]
          +0.012*[#   8]
    |psi|^2 = 0.172
==== e(   9) =     5.37832 eV ==== 
     psi = 0.222*[#   1]+0.222*[#   5]+0.069*[#   3]+0.069*[#   4]+0.069*[#   7]
          +0.069*[#   8]
    |psi|^2 = 0.719
==== e(  10) =     6.26207 eV ==== 
     psi = 0.003*[#   2]+0.003*[#   6]
    |psi|^2 = 0.006
==== e(  11) =     6.70853 eV ==== 
     psi = 0.003*[#   3]+0.003*[#   4]+0.003*[#   7]+0.003*[#   8]+0.002*[#   1]
          +0.002*[#   5]
    |psi|^2 = 0.014
==== e(  12) =     8.33921 eV ==== 
     psi = 0.002*[#   2]+0.002*[#   6]
    |psi|^2 = 0.005
==== e(  13) =     9.02601 eV ==== 
     psi = 0.001*[#   3]+0.001*[#   4]+0.001*[#   7]+0.001*[#   8]
    |psi|^2 = 0.006
==== e(  14) =    11.20976 eV ==== 
     psi = 0.002*[#   2]+0.002*[#   6]
    |psi|^2 = 0.005
==== e(  15) =    12.11832 eV ==== 
     psi = 0.002*[#   1]+0.002*[#   5]
    |psi|^2 = 0.006
==== e(  16) =    13.41035 eV ==== 
     psi = 0.129*[#   1]+0.129*[#   5]+0.046*[#   3]+0.046*[#   4]+0.046*[#   7]
          +0.046*[#   8]
    |psi|^2 = 0.443

 k =   0.0000000000  0.3969283101  0.0000000000
==== e(   1) =   -19.13092 eV ==== 
     psi = 0.298*[#   1]+0.298*[#   5]+0.097*[#   3]+0.097*[#   4]+0.097*[#   7]
          +0.097*[#   8]
    |psi|^2 = 0.982
==== e(   2) =   -12.26844 eV ==== 
     psi = 0.182*[#   3]+0.182*[#   4]+0.182*[#   7]+0.182*[#   8]+0.132*[#   1]
          +0.132*[#   5]
    |psi|^2 = 0.990
==== e(   3) =    -8.22585 eV ==== 
     psi = 0.249*[#   3]+0.249*[#   4]+0.249*[#   7]+0.249*[#   8]
    |psi|^2 = 0.996
==== e(   4) =    -6.79946 eV ==== 
     psi = 0.496*[#   2]+0.496*[#   6]
    |psi|^2 = 0.992
==== e(   5) =     2.26358 eV ==== 
     psi = 0.470*[#   2]+0.470*[#   6]
    |psi|^2 = 0.939
==== e(   6) =     4.62037 eV ==== 
     psi = 0.006*[#   1]+0.006*[#   5]+0.001*[#   3]+0.001*[#   4]+0.001*[#   7]
          +0.001*[#   8]
    |psi|^2 = 0.016
==== e(   7) =     5.31228 eV ==== 
     psi = 0.272*[#   1]+0.272*[#   5]+0.072*[#   3]+0.072*[#   4]+0.072*[#   7]
          +0.072*[#   8]
    |psi|^2 = 0.834
==== e(   8) =     5.36736 eV ==== 
     psi = 0.004*[#   2]+0.004*[#   6]
    |psi|^2 = 0.008
==== e(   9) =     5.53133 eV ==== 
     psi = 0.014*[#   1]+0.014*[#   5]+0.007*[#   3]+0.007*[#   4]+0.007*[#   7]
          +0.007*[#   8]
    |psi|^2 = 0.057
==== e(  10) =     6.48884 eV ==== 
     psi = 0.003*[#   2]+0.003*[#   6]
    |psi|^2 = 0.005
==== e(  11) =     6.93641 eV ==== 
     psi = 0.002*[#   3]+0.002*[#   4]+0.002*[#   7]+0.002*[#   8]+0.001*[#   1]
          +0.001*[#   5]
    |psi|^2 = 0.011
==== e(  12) =     8.56209 eV ==== 
     psi = 0.002*[#   2]+0.002*[#   6]
    |psi|^2 = 0.004
==== e(  13) =     9.25198 eV ==== 
     psi = 0.001*[#   3]+0.001*[#   4]+0.001*[#   7]+0.001*[#   8]
    |psi|^2 = 0.005
==== e(  14) =    11.41623 eV ==== 
     psi = 0.003*[#   2]+0.003*[#   6]
    |psi|^2 = 0.005
==== e(  15) =    12.33989 eV ==== 
     psi = 0.002*[#   1]+0.002*[#   5]
    |psi|^2 = 0.007
==== e(  16) =    13.30892 eV ==== 
     psi = 0.103*[#   1]+0.103*[#   5]+0.038*[#   3]+0.038*[#   4]+0.038*[#   7]
          +0.038*[#   8]
    |psi|^2 = 0.358

 k =   0.0000000000  0.4089564407  0.0000000000
==== e(   1) =   -18.96640 eV ==== 
     psi = 0.293*[#   1]+0.293*[#   5]+0.099*[#   3]+0.099*[#   4]+0.099*[#   7]
          +0.099*[#   8]
    |psi|^2 = 0.982
==== e(   2) =   -12.53786 eV ==== 
     psi = 0.180*[#   3]+0.180*[#   4]+0.180*[#   7]+0.180*[#   8]+0.135*[#   1]
          +0.135*[#   5]
    |psi|^2 = 0.990
==== e(   3) =    -8.29634 eV ==== 
     psi = 0.249*[#   3]+0.249*[#   4]+0.249*[#   7]+0.249*[#   8]
    |psi|^2 = 0.996
==== e(   4) =    -6.62208 eV ==== 
     psi = 0.496*[#   2]+0.496*[#   6]
    |psi|^2 = 0.993
==== e(   5) =     1.98191 eV ==== 
     psi = 0.470*[#   2]+0.470*[#   6]
    |psi|^2 = 0.941
==== e(   6) =     4.84084 eV ==== 
     psi = 0.017*[#   1]+0.017*[#   5]
    |psi|^2 = 0.035
==== e(   7) =     5.29520 eV ==== 
     psi = 0.279*[#   1]+0.279*[#   5]+0.075*[#   3]+0.075*[#   4]+0.075*[#   7]
          +0.075*[#   8]
    |psi|^2 = 0.857
==== e(   8) =     5.60155 eV ==== 
     psi = 0.003*[#   2]+0.003*[#   6]
    |psi|^2 = 0.007
==== e(   9) =     5.76383 eV ==== 
     psi = 0.003*[#   1]+0.003*[#   5]+0.002*[#   3]+0.002*[#   4]+0.002*[#   7]
          +0.002*[#   8]
    |psi|^2 = 0.016
==== e(  10) =     6.72250 eV ==== 
     psi = 0.002*[#   2]+0.002*[#   6]
    |psi|^2 = 0.005
==== e(  11) =     7.17153 eV ==== 
     psi = 0.002*[#   3]+0.002*[#   4]+0.002*[#   7]+0.002*[#   8]
    |psi|^2 = 0.009
==== e(  12) =     8.79125 eV ==== 
     psi = 0.002*[#   2]+0.002*[#   6]
    |psi|^2 = 0.004
==== e(  13) =     9.48474 eV ==== 

    |psi|^2 = 0.005
==== e(  14) =    11.62525 eV ==== 
     psi = 0.003*[#   2]+0.003*[#   6]
    |psi|^2 = 0.006
==== e(  15) =    12.56658 eV ==== 
     psi = 0.003*[#   1]+0.003*[#   5]
    |psi|^2 = 0.010
==== e(  16) =    13.15262 eV ==== 
     psi = 0.079*[#   1]+0.079*[#   5]+0.029*[#   3]+0.029*[#   4]+0.029*[#   7]
          +0.029*[#   8]
    |psi|^2 = 0.276

 k =   0.0000000000  0.4209845713  0.0000000000
==== e(   1) =   -18.79766 eV ==== 
     psi = 0.289*[#   1]+0.289*[#   5]+0.101*[#   3]+0.101*[#   4]+0.101*[#   7]
          +0.101*[#   8]
    |psi|^2 = 0.983
==== e(   2) =   -12.80502 eV ==== 
     psi = 0.178*[#   3]+0.178*[#   4]+0.178*[#   7]+0.178*[#   8]+0.138*[#   1]
          +0.138*[#   5]
    |psi|^2 = 0.989
==== e(   3) =    -8.36244 eV ==== 
     psi = 0.249*[#   3]+0.249*[#   4]+0.249*[#   7]+0.249*[#   8]
    |psi|^2 = 0.996
==== e(   4) =    -6.44295 eV ==== 
     psi = 0.497*[#   2]+0.497*[#   6]
    |psi|^2 = 0.994
==== e(   5) =     1.70409 eV ==== 
     psi = 0.471*[#   2]+0.471*[#   6]
    |psi|^2 = 0.942
==== e(   6) =     5.04250 eV ==== 
     psi = 0.075*[#   1]+0.075*[#   5]+0.005*[#   3]+0.005*[#   4]+0.005*[#   7]
          +0.005*[#   8]
    |psi|^2 = 0.171
==== e(   7) =     5.30105 eV ==== 
     psi = 0.229*[#   1]+0.229*[#   5]+0.067*[#   3]+0.067*[#   4]+0.067*[#   7]
          +0.067*[#   8]
    |psi|^2 = 0.728
==== e(   8) =     5.84278 eV ==== 
     psi = 0.003*[#   2]+0.003*[#   6]
    |psi|^2 = 0.006
==== e(   9) =     6.00760 eV ==== 
     psi = 0.001*[#   3]+0.001*[#   4]+0.001*[#   7]+0.001*[#   8]+0.001*[#   1]
          +0.001*[#   5]
    |psi|^2 = 0.008
==== e(  10) =     6.96297 eV ==== 
     psi = 0.002*[#   2]+0.002*[#   6]
    |psi|^2 = 0.004
==== e(  11) =     7.41378 eV ==== 
     psi = 0.001*[#   3]+0.001*[#   4]+0.001*[#   7]+0.001*[#   8]
    |psi|^2 = 0.007
==== e(  12) =     9.02657 eV ==== 
     psi = 0.002*[#   2]+0.002*[#   6]
    |psi|^2 = 0.004
==== e(  13) =     9.72422 eV ==== 

    |psi|^2 = 0.004
==== e(  14) =    11.83488 eV ==== 
     psi = 0.003*[#   2]+0.003*[#   6]
    |psi|^2 = 0.007
==== e(  15) =    12.78726 eV ==== 
     psi = 0.013*[#   1]+0.013*[#   5]+0.004*[#   3]+0.004*[#   4]+0.004*[#   7]
          +0.004*[#   8]
    |psi|^2 = 0.042
==== e(  16) =    12.95825 eV ==== 
     psi = 0.050*[#   1]+0.050*[#   5]+0.019*[#   3]+0.019*[#   4]+0.019*[#   7]
          +0.019*[#   8]
    |psi|^2 = 0.178

 k =   0.0000000000  0.4330127019  0.0000000000
==== e(   1) =   -18.62486 eV ==== 
     psi = 0.286*[#   1]+0.286*[#   5]+0.103*[#   3]+0.103*[#   4]+0.103*[#   7]
          +0.103*[#   8]
    |psi|^2 = 0.983
==== e(   2) =   -13.06961 eV ==== 
     psi = 0.177*[#   3]+0.177*[#   4]+0.177*[#   7]+0.177*[#   8]+0.141*[#   1]
          +0.141*[#   5]
    |psi|^2 = 0.989
==== e(   3) =    -8.42403 eV ==== 
     psi = 0.249*[#   3]+0.249*[#   4]+0.249*[#   7]+0.249*[#   8]
    |psi|^2 = 0.996
==== e(   4) =    -6.26283 eV ==== 
     psi = 0.497*[#   2]+0.497*[#   6]
    |psi|^2 = 0.994
==== e(   5) =     1.43129 eV ==== 
     psi = 0.471*[#   2]+0.471*[#   6]
    |psi|^2 = 0.943
==== e(   6) =     5.14331 eV ==== 
     psi = 0.237*[#   1]+0.237*[#   5]+0.038*[#   3]+0.038*[#   4]+0.038*[#   7]
          +0.038*[#   8]
    |psi|^2 = 0.629
==== e(   7) =     5.41530 eV ==== 
     psi = 0.072*[#   1]+0.072*[#   5]+0.032*[#   3]+0.032*[#   4]+0.032*[#   7]
          +0.032*[#   8]
    |psi|^2 = 0.273
==== e(   8) =     6.09092 eV ==== 
     psi = 0.003*[#   2]+0.003*[#   6]
    |psi|^2 = 0.005
==== e(   9) =     6.25937 eV ==== 

    |psi|^2 = 0.005
==== e(  10) =     7.21020 eV ==== 
     psi = 0.002*[#   2]+0.002*[#   6]
    |psi|^2 = 0.004
==== e(  11) =     7.66308 eV ==== 
     psi = 0.001*[#   3]+0.001*[#   4]+0.001*[#   7]+0.001*[#   8]
    |psi|^2 = 0.006
==== e(  12) =     9.26785 eV ==== 
     psi = 0.002*[#   2]+0.002*[#   6]
    |psi|^2 = 0.004
==== e(  13) =     9.97038 eV ==== 

    |psi|^2 = 0.004
==== e(  14) =    12.04133 eV ==== 
     psi = 0.004*[#   2]+0.004*[#   6]
    |psi|^2 = 0.008
==== e(  15) =    12.68100 eV ==== 
     psi = 0.048*[#   1]+0.048*[#   5]+0.017*[#   3]+0.017*[#   4]+0.017*[#   7]
          +0.017*[#   8]
    |psi|^2 = 0.164
==== e(  16) =    13.05576 eV ==== 

    |psi|^2 = 0.002

 k =   0.0000000000  0.4450408325  0.0000000000
==== e(   1) =   -18.44819 eV ==== 
     psi = 0.282*[#   1]+0.282*[#   5]+0.105*[#   3]+0.105*[#   4]+0.105*[#   7]
          +0.105*[#   8]
    |psi|^2 = 0.983
==== e(   2) =   -13.33130 eV ==== 
     psi = 0.175*[#   3]+0.175*[#   4]+0.175*[#   7]+0.175*[#   8]+0.144*[#   1]
          +0.144*[#   5]
    |psi|^2 = 0.988
==== e(   3) =    -8.48102 eV ==== 
     psi = 0.249*[#   3]+0.249*[#   4]+0.249*[#   7]+0.249*[#   8]
    |psi|^2 = 0.996
==== e(   4) =    -6.08270 eV ==== 
     psi = 0.497*[#   2]+0.497*[#   6]
    |psi|^2 = 0.995
==== e(   5) =     1.16479 eV ==== 
     psi = 0.472*[#   2]+0.472*[#   6]
    |psi|^2 = 0.944
==== e(   6) =     5.14769 eV ==== 
     psi = 0.296*[#   1]+0.296*[#   5]+0.054*[#   3]+0.054*[#   4]+0.054*[#   7]
          +0.054*[#   8]
    |psi|^2 = 0.805
==== e(   7) =     5.63419 eV ==== 
     psi = 0.019*[#   1]+0.019*[#   5]+0.015*[#   3]+0.015*[#   4]+0.015*[#   7]
          +0.015*[#   8]
    |psi|^2 = 0.097
==== e(   8) =     6.34587 eV ==== 
     psi = 0.002*[#   2]+0.002*[#   6]
    |psi|^2 = 0.005
==== e(   9) =     6.51857 eV ==== 

    |psi|^2 = 0.004
==== e(  10) =     7.46411 eV ==== 
     psi = 0.002*[#   2]+0.002*[#   6]
    |psi|^2 = 0.004
==== e(  11) =     7.91937 eV ==== 
     psi = 0.001*[#   3]+0.001*[#   4]+0.001*[#   7]+0.001*[#   8]
    |psi|^2 = 0.005
==== e(  12) =     9.51487 eV ==== 
     psi = 0.002*[#   2]+0.002*[#   6]
    |psi|^2 = 0.004
==== e(  13) =    10.22315 eV ==== 

    |psi|^2 = 0.004
==== e(  14) =    12.23572 eV ==== 
     psi = 0.005*[#   2]+0.005*[#   6]
    |psi|^2 = 0.010
==== e(  15) =    12.40458 eV ==== 
     psi = 0.036*[#   1]+0.036*[#   5]+0.013*[#   3]+0.013*[#   4]+0.013*[#   7]
          +0.013*[#   8]
    |psi|^2 = 0.122
==== e(  16) =    13.29812 eV ==== 

    |psi|^2 = 0.004

 k =   0.0000000000  0.4570689631  0.0000000000
==== e(   1) =   -18.26783 eV ==== 
     psi = 0.279*[#   1]+0.279*[#   5]+0.106*[#   3]+0.106*[#   4]+0.106*[#   7]
          +0.106*[#   8]
    |psi|^2 = 0.984
==== e(   2) =   -13.58969 eV ==== 
     psi = 0.174*[#   3]+0.174*[#   4]+0.174*[#   7]+0.174*[#   8]+0.147*[#   1]
          +0.147*[#   5]
    |psi|^2 = 0.988
==== e(   3) =    -8.53332 eV ==== 
     psi = 0.249*[#   3]+0.249*[#   4]+0.249*[#   7]+0.249*[#   8]
    |psi|^2 = 0.996
==== e(   4) =    -5.90370 eV ==== 
     psi = 0.498*[#   2]+0.498*[#   6]
    |psi|^2 = 0.995
==== e(   5) =     0.90605 eV ==== 
     psi = 0.472*[#   2]+0.472*[#   6]
    |psi|^2 = 0.945
==== e(   6) =     5.13175 eV ==== 
     psi = 0.312*[#   1]+0.312*[#   5]+0.057*[#   3]+0.057*[#   4]+0.057*[#   7]
          +0.057*[#   8]
    |psi|^2 = 0.850
==== e(   7) =     5.88190 eV ==== 
     psi = 0.009*[#   3]+0.009*[#   4]+0.009*[#   7]+0.009*[#   8]+0.008*[#   1]
          +0.008*[#   5]
    |psi|^2 = 0.052
==== e(   8) =     6.60756 eV ==== 
     psi = 0.002*[#   2]+0.002*[#   6]
    |psi|^2 = 0.004
==== e(   9) =     6.78503 eV ==== 

    |psi|^2 = 0.003
==== e(  10) =     7.72463 eV ==== 
     psi = 0.002*[#   2]+0.002*[#   6]
    |psi|^2 = 0.004
==== e(  11) =     8.18261 eV ==== 

    |psi|^2 = 0.004
==== e(  12) =     9.76727 eV ==== 
     psi = 0.002*[#   2]+0.002*[#   6]
    |psi|^2 = 0.004
==== e(  13) =    10.48239 eV ==== 

    |psi|^2 = 0.004
==== e(  14) =    12.10247 eV ==== 
     psi = 0.027*[#   1]+0.027*[#   5]+0.009*[#   3]+0.009*[#   4]+0.009*[#   7]
          +0.009*[#   8]
    |psi|^2 = 0.091
==== e(  15) =    12.39081 eV ==== 
     psi = 0.007*[#   2]+0.007*[#   6]
    |psi|^2 = 0.014
==== e(  16) =    13.19501 eV ==== 
     psi = 0.002*[#   2]+0.002*[#   6]
    |psi|^2 = 0.005

 k =   0.0000000000  0.4690970937  0.0000000000
==== e(   1) =   -18.08413 eV ==== 
     psi = 0.277*[#   1]+0.277*[#   5]+0.108*[#   3]+0.108*[#   4]+0.108*[#   7]
          +0.108*[#   8]
    |psi|^2 = 0.984
==== e(   2) =   -13.84437 eV ==== 
     psi = 0.173*[#   3]+0.173*[#   4]+0.173*[#   7]+0.173*[#   8]+0.149*[#   1]
          +0.149*[#   5]
    |psi|^2 = 0.988
==== e(   3) =    -8.58086 eV ==== 
     psi = 0.249*[#   3]+0.249*[#   4]+0.249*[#   7]+0.249*[#   8]
    |psi|^2 = 0.996
==== e(   4) =    -5.72730 eV ==== 
     psi = 0.498*[#   2]+0.498*[#   6]
    |psi|^2 = 0.996
==== e(   5) =     0.65679 eV ==== 
     psi = 0.473*[#   2]+0.473*[#   6]
    |psi|^2 = 0.945
==== e(   6) =     5.11236 eV ==== 
     psi = 0.320*[#   1]+0.320*[#   5]+0.057*[#   3]+0.057*[#   4]+0.057*[#   7]
          +0.057*[#   8]
    |psi|^2 = 0.868
==== e(   7) =     6.14168 eV ==== 
     psi = 0.007*[#   3]+0.007*[#   4]+0.007*[#   7]+0.007*[#   8]+0.004*[#   1]
          +0.004*[#   5]
    |psi|^2 = 0.034
==== e(   8) =     6.87588 eV ==== 
     psi = 0.002*[#   2]+0.002*[#   6]
    |psi|^2 = 0.004
==== e(   9) =     7.05866 eV ==== 

    |psi|^2 = 0.002
==== e(  10) =     7.99167 eV ==== 
     psi = 0.002*[#   2]+0.002*[#   6]
    |psi|^2 = 0.003
==== e(  11) =     8.45275 eV ==== 

    |psi|^2 = 0.004
==== e(  12) =    10.02453 eV ==== 
     psi = 0.002*[#   2]+0.002*[#   6]
    |psi|^2 = 0.005
==== e(  13) =    10.74787 eV ==== 

    |psi|^2 = 0.004
==== e(  14) =    11.78479 eV ==== 
     psi = 0.020*[#   1]+0.020*[#   5]+0.007*[#   3]+0.007*[#   4]+0.007*[#   7]
          +0.007*[#   8]
    |psi|^2 = 0.068
==== e(  15) =    12.41702 eV ==== 
     psi = 0.009*[#   2]+0.009*[#   6]
    |psi|^2 = 0.017
==== e(  16) =    13.03868 eV ==== 

    |psi|^2 = 0.000

 k =   0.0000000000  0.4811252243  0.0000000000
==== e(   1) =   -17.89754 eV ==== 
     psi = 0.275*[#   1]+0.275*[#   5]+0.109*[#   3]+0.109*[#   4]+0.109*[#   7]
          +0.109*[#   8]
    |psi|^2 = 0.985
==== e(   2) =   -14.09476 eV ==== 
     psi = 0.172*[#   3]+0.172*[#   4]+0.172*[#   7]+0.172*[#   8]+0.150*[#   1]
          +0.150*[#   5]
    |psi|^2 = 0.987
==== e(   3) =    -8.62357 eV ==== 
     psi = 0.249*[#   3]+0.249*[#   4]+0.249*[#   7]+0.249*[#   8]
    |psi|^2 = 0.996
==== e(   4) =    -5.55531 eV ==== 
     psi = 0.498*[#   2]+0.498*[#   6]
    |psi|^2 = 0.996
==== e(   5) =     0.41904 eV ==== 
     psi = 0.473*[#   2]+0.473*[#   6]
    |psi|^2 = 0.946
==== e(   6) =     5.09314 eV ==== 
     psi = 0.325*[#   1]+0.325*[#   5]+0.057*[#   3]+0.057*[#   4]+0.057*[#   7]
          +0.057*[#   8]
    |psi|^2 = 0.877
==== e(   7) =     6.40995 eV ==== 
     psi = 0.005*[#   3]+0.005*[#   4]+0.005*[#   7]+0.005*[#   8]+0.002*[#   1]
          +0.002*[#   5]
    |psi|^2 = 0.025
==== e(   8) =     7.15076 eV ==== 
     psi = 0.002*[#   2]+0.002*[#   6]
    |psi|^2 = 0.004
==== e(   9) =     7.33942 eV ==== 

    |psi|^2 = 0.002
==== e(  10) =     8.26513 eV ==== 
     psi = 0.002*[#   2]+0.002*[#   6]
    |psi|^2 = 0.003
==== e(  11) =     8.72973 eV ==== 

    |psi|^2 = 0.003
==== e(  12) =    10.28566 eV ==== 
     psi = 0.003*[#   2]+0.003*[#   6]
    |psi|^2 = 0.005
==== e(  13) =    11.01829 eV ==== 
     psi = 0.001*[#   1]+0.001*[#   5]
    |psi|^2 = 0.005
==== e(  14) =    11.45864 eV ==== 
     psi = 0.015*[#   1]+0.015*[#   5]+0.005*[#   3]+0.005*[#   4]+0.005*[#   7]
          +0.005*[#   8]
    |psi|^2 = 0.050
==== e(  15) =    12.23237 eV ==== 
     psi = 0.007*[#   2]+0.007*[#   6]
    |psi|^2 = 0.015
==== e(  16) =    12.78529 eV ==== 
     psi = 0.001*[#   1]+0.001*[#   5]
    |psi|^2 = 0.005

 k =   0.0000000000  0.4931533549  0.0000000000
==== e(   1) =   -17.70868 eV ==== 
     psi = 0.274*[#   1]+0.274*[#   5]+0.110*[#   3]+0.110*[#   4]+0.110*[#   7]
          +0.110*[#   8]
    |psi|^2 = 0.986
==== e(   2) =   -14.34015 eV ==== 
     psi = 0.171*[#   3]+0.171*[#   4]+0.171*[#   7]+0.171*[#   8]+0.151*[#   1]
          +0.151*[#   5]
    |psi|^2 = 0.986
==== e(   3) =    -8.66138 eV ==== 
     psi = 0.249*[#   3]+0.249*[#   4]+0.249*[#   7]+0.249*[#   8]
    |psi|^2 = 0.996
==== e(   4) =    -5.38998 eV ==== 
     psi = 0.498*[#   2]+0.498*[#   6]
    |psi|^2 = 0.996
==== e(   5) =     0.19523 eV ==== 
     psi = 0.473*[#   2]+0.473*[#   6]
    |psi|^2 = 0.947
==== e(   6) =     5.07528 eV ==== 
     psi = 0.329*[#   1]+0.329*[#   5]+0.056*[#   3]+0.056*[#   4]+0.056*[#   7]
          +0.056*[#   8]
    |psi|^2 = 0.882
==== e(   7) =     6.68553 eV ==== 
     psi = 0.004*[#   3]+0.004*[#   4]+0.004*[#   7]+0.004*[#   8]+0.002*[#   1]
          +0.002*[#   5]
    |psi|^2 = 0.019
==== e(   8) =     7.43206 eV ==== 
     psi = 0.002*[#   2]+0.002*[#   6]
    |psi|^2 = 0.004
==== e(   9) =     7.62729 eV ==== 

    |psi|^2 = 0.001
==== e(  10) =     8.54485 eV ==== 
     psi = 0.002*[#   2]+0.002*[#   6]
    |psi|^2 = 0.003
[...]
          +0.009*[#   8]
    |psi|^2 = 0.101
==== e(   8) =    10.60580 eV ==== 
     psi = 0.157*[#   1]+0.157*[#   5]+0.049*[#   3]+0.049*[#   4]+0.049*[#   7]
          +0.049*[#   8]
    |psi|^2 = 0.511
==== e(   9) =    11.00850 eV ==== 
     psi = 0.056*[#   1]+0.056*[#   5]+0.028*[#   3]+0.028*[#   4]+0.028*[#   7]
          +0.028*[#   8]
    |psi|^2 = 0.223
==== e(  10) =    11.25286 eV ==== 
     psi = 0.001*[#   1]+0.001*[#   3]+0.001*[#   4]+0.001*[#   5]+0.001*[#   7]
          +0.001*[#   8]
    |psi|^2 = 0.008
==== e(  11) =    11.26002 eV ==== 

    |psi|^2 = 0.000
==== e(  12) =    12.31287 eV ==== 

    |psi|^2 = 0.000
==== e(  13) =    12.44293 eV ==== 
     psi = 0.012*[#   1]+0.012*[#   5]+0.005*[#   3]+0.005*[#   4]+0.005*[#   7]
          +0.005*[#   8]
    |psi|^2 = 0.044
==== e(  14) =    12.85674 eV ==== 
     psi = 0.012*[#   1]+0.012*[#   5]+0.006*[#   3]+0.006*[#   4]+0.006*[#   7]
          +0.006*[#   8]
    |psi|^2 = 0.047
==== e(  15) =    12.92618 eV ==== 

    |psi|^2 = 0.000
==== e(  16) =    13.38159 eV ==== 
     psi = 0.042*[#   1]+0.042*[#   5]+0.019*[#   3]+0.019*[#   4]+0.019*[#   7]
          +0.019*[#   8]
    |psi|^2 = 0.160

 k =   0.3020833333  0.5593080733  0.0000000000
==== e(   1) =   -15.37113 eV ==== 
     psi = 0.242*[#   1]+0.242*[#   5]+0.127*[#   3]+0.127*[#   4]+0.127*[#   7]
          +0.127*[#   8]
    |psi|^2 = 0.993
==== e(   2) =   -14.65532 eV ==== 
     psi = 0.214*[#   1]+0.214*[#   5]+0.141*[#   3]+0.141*[#   4]+0.141*[#   7]
          +0.141*[#   8]
    |psi|^2 = 0.993
==== e(   3) =   -12.76406 eV ==== 
     psi = 0.240*[#   3]+0.240*[#   4]+0.240*[#   7]+0.240*[#   8]+0.011*[#   1]
          +0.011*[#   5]
    |psi|^2 = 0.982
==== e(   4) =    -2.85997 eV ==== 
     psi = 0.497*[#   2]+0.497*[#   6]
    |psi|^2 = 0.995
==== e(   5) =    -1.85840 eV ==== 
     psi = 0.496*[#   2]+0.496*[#   6]
    |psi|^2 = 0.992
==== e(   6) =     8.30816 eV ==== 

    |psi|^2 = 0.001
==== e(   7) =    10.10120 eV ==== 
     psi = 0.046*[#   1]+0.046*[#   5]+0.014*[#   3]+0.014*[#   4]+0.014*[#   7]
          +0.014*[#   8]
    |psi|^2 = 0.146
==== e(   8) =    10.55455 eV ==== 
     psi = 0.138*[#   1]+0.138*[#   5]+0.043*[#   3]+0.043*[#   4]+0.043*[#   7]
          +0.043*[#   8]
    |psi|^2 = 0.449
==== e(   9) =    10.99773 eV ==== 
     psi = 0.047*[#   1]+0.047*[#   5]+0.023*[#   3]+0.023*[#   4]+0.023*[#   7]
          +0.023*[#   8]
    |psi|^2 = 0.185
==== e(  10) =    11.55040 eV ==== 

    |psi|^2 = 0.000
==== e(  11) =    11.55904 eV ==== 

    |psi|^2 = 0.003
==== e(  12) =    12.44727 eV ==== 

    |psi|^2 = 0.000
==== e(  13) =    12.51829 eV ==== 
     psi = 0.014*[#   1]+0.014*[#   5]+0.007*[#   3]+0.007*[#   4]+0.007*[#   7]
          +0.007*[#   8]
    |psi|^2 = 0.055
==== e(  14) =    12.70279 eV ==== 
     psi = 0.017*[#   1]+0.017*[#   5]+0.008*[#   3]+0.008*[#   4]+0.008*[#   7]
          +0.008*[#   8]
    |psi|^2 = 0.066
==== e(  15) =    12.76660 eV ==== 

    |psi|^2 = 0.000
==== e(  16) =    13.28074 eV ==== 
     psi = 0.055*[#   1]+0.055*[#   5]+0.026*[#   3]+0.026*[#   4]+0.026*[#   7]
          +0.026*[#   8]
    |psi|^2 = 0.213

 k =   0.3020833333  0.5713362039  0.0000000000
==== e(   1) =   -15.27408 eV ==== 
     psi = 0.245*[#   1]+0.245*[#   5]+0.126*[#   3]+0.126*[#   4]+0.126*[#   7]
          +0.126*[#   8]
    |psi|^2 = 0.993
==== e(   2) =   -14.74166 eV ==== 
     psi = 0.212*[#   1]+0.212*[#   5]+0.142*[#   3]+0.142*[#   4]+0.142*[#   7]
          +0.142*[#   8]
    |psi|^2 = 0.992
==== e(   3) =   -12.78548 eV ==== 
     psi = 0.240*[#   3]+0.240*[#   4]+0.240*[#   7]+0.240*[#   8]+0.010*[#   1]
          +0.010*[#   5]
    |psi|^2 = 0.982
==== e(   4) =    -2.78095 eV ==== 
     psi = 0.497*[#   2]+0.497*[#   6]
    |psi|^2 = 0.995
==== e(   5) =    -1.93690 eV ==== 
     psi = 0.496*[#   2]+0.496*[#   6]
    |psi|^2 = 0.992
==== e(   6) =     8.30090 eV ==== 

    |psi|^2 = 0.001
==== e(   7) =    10.27830 eV ==== 
     psi = 0.062*[#   1]+0.062*[#   5]+0.019*[#   3]+0.019*[#   4]+0.019*[#   7]
          +0.019*[#   8]
    |psi|^2 = 0.199
==== e(   8) =    10.47363 eV ==== 
     psi = 0.116*[#   1]+0.116*[#   5]+0.036*[#   3]+0.036*[#   4]+0.036*[#   7]
          +0.036*[#   8]
    |psi|^2 = 0.375
==== e(   9) =    10.97458 eV ==== 
     psi = 0.044*[#   1]+0.044*[#   5]+0.021*[#   3]+0.021*[#   4]+0.021*[#   7]
          +0.021*[#   8]
    |psi|^2 = 0.170
==== e(  10) =    11.81416 eV ==== 

    |psi|^2 = 0.000
==== e(  11) =    11.87848 eV ==== 
     psi = 0.003*[#   1]+0.003*[#   5]+0.001*[#   3]+0.001*[#   4]+0.001*[#   7]
          +0.001*[#   8]
    |psi|^2 = 0.011
==== e(  12) =    12.20406 eV ==== 
     psi = 0.005*[#   1]+0.005*[#   5]+0.002*[#   3]+0.002*[#   4]+0.002*[#   7]
          +0.002*[#   8]
    |psi|^2 = 0.020
==== e(  13) =    12.25770 eV ==== 

    |psi|^2 = 0.000
==== e(  14) =    12.87493 eV ==== 
     psi = 0.050*[#   1]+0.050*[#   5]+0.024*[#   3]+0.024*[#   4]+0.024*[#   7]
          +0.024*[#   8]
    |psi|^2 = 0.197
==== e(  15) =    12.94622 eV ==== 

    |psi|^2 = 0.000
==== e(  16) =    13.17761 eV ==== 
     psi = 0.032*[#   1]+0.032*[#   5]+0.014*[#   3]+0.014*[#   4]+0.014*[#   7]
          +0.014*[#   8]
    |psi|^2 = 0.121

 k =   0.3125000000  0.5412658774  0.0000000000
==== e(   1) =   -15.51122 eV ==== 
     psi = 0.240*[#   1]+0.240*[#   5]+0.128*[#   3]+0.128*[#   4]+0.128*[#   7]
          +0.128*[#   8]
    |psi|^2 = 0.992
==== e(   2) =   -14.51834 eV ==== 
     psi = 0.217*[#   1]+0.217*[#   5]+0.140*[#   3]+0.140*[#   4]+0.140*[#   7]
          +0.140*[#   8]
    |psi|^2 = 0.994
==== e(   3) =   -12.74424 eV ==== 
     psi = 0.241*[#   3]+0.241*[#   4]+0.241*[#   7]+0.241*[#   8]+0.010*[#   1]
          +0.010*[#   5]
    |psi|^2 = 0.982
==== e(   4) =    -2.97468 eV ==== 
     psi = 0.497*[#   2]+0.497*[#   6]
    |psi|^2 = 0.995
==== e(   5) =    -1.74270 eV ==== 
     psi = 0.496*[#   2]+0.496*[#   6]
    |psi|^2 = 0.992
==== e(   6) =     8.31467 eV ==== 

    |psi|^2 = 0.000
==== e(   7) =     9.87977 eV ==== 
     psi = 0.032*[#   1]+0.032*[#   5]+0.009*[#   3]+0.009*[#   4]+0.009*[#   7]
          +0.009*[#   8]
    |psi|^2 = 0.100
==== e(   8) =    10.63618 eV ==== 
     psi = 0.155*[#   1]+0.155*[#   5]+0.049*[#   3]+0.049*[#   4]+0.049*[#   7]
          +0.049*[#   8]
    |psi|^2 = 0.505
==== e(   9) =    11.03821 eV ==== 
     psi = 0.058*[#   1]+0.058*[#   5]+0.028*[#   3]+0.028*[#   4]+0.028*[#   7]
          +0.028*[#   8]
    |psi|^2 = 0.227
==== e(  10) =    11.25428 eV ==== 
     psi = 0.002*[#   1]+0.002*[#   5]+0.002*[#   3]+0.002*[#   4]+0.002*[#   7]
          +0.002*[#   8]
    |psi|^2 = 0.013
==== e(  11) =    11.25826 eV ==== 

    |psi|^2 = 0.000
==== e(  12) =    12.32221 eV ==== 

    |psi|^2 = 0.000
==== e(  13) =    12.44393 eV ==== 
     psi = 0.010*[#   1]+0.010*[#   5]+0.004*[#   3]+0.004*[#   4]+0.004*[#   7]
          +0.004*[#   8]
    |psi|^2 = 0.038
==== e(  14) =    13.07630 eV ==== 

    |psi|^2 = 0.000
==== e(  15) =    13.10638 eV ==== 
     psi = 0.029*[#   1]+0.029*[#   5]+0.013*[#   3]+0.013*[#   4]+0.013*[#   7]
          +0.013*[#   8]
    |psi|^2 = 0.110
==== e(  16) =    13.17168 eV ==== 
     psi = 0.014*[#   1]+0.014*[#   5]+0.007*[#   3]+0.007*[#   4]+0.007*[#   7]
          +0.007*[#   8]
    |psi|^2 = 0.057

 k =   0.3125000000  0.5532940080  0.0000000000
==== e(   1) =   -15.35607 eV ==== 
     psi = 0.239*[#   1]+0.239*[#   5]+0.128*[#   3]+0.128*[#   4]+0.128*[#   7]
          +0.128*[#   8]
    |psi|^2 = 0.993
==== e(   2) =   -14.63624 eV ==== 
     psi = 0.221*[#   1]+0.221*[#   5]+0.138*[#   3]+0.138*[#   4]+0.138*[#   7]
          +0.138*[#   8]
    |psi|^2 = 0.994
==== e(   3) =   -12.80784 eV ==== 
     psi = 0.242*[#   3]+0.242*[#   4]+0.242*[#   7]+0.242*[#   8]+0.007*[#   1]
          +0.007*[#   5]
    |psi|^2 = 0.982
==== e(   4) =    -2.81814 eV ==== 
     psi = 0.497*[#   2]+0.497*[#   6]
    |psi|^2 = 0.995
==== e(   5) =    -1.89672 eV ==== 
     psi = 0.496*[#   2]+0.496*[#   6]
    |psi|^2 = 0.992
==== e(   6) =     8.29430 eV ==== 

    |psi|^2 = 0.000
==== e(   7) =    10.09807 eV ==== 
     psi = 0.045*[#   1]+0.045*[#   5]+0.013*[#   3]+0.013*[#   4]+0.013*[#   7]
          +0.013*[#   8]
    |psi|^2 = 0.142
==== e(   8) =    10.61196 eV ==== 
     psi = 0.140*[#   1]+0.140*[#   5]+0.044*[#   3]+0.044*[#   4]+0.044*[#   7]
          +0.044*[#   8]
    |psi|^2 = 0.457
==== e(   9) =    11.06687 eV ==== 
     psi = 0.044*[#   1]+0.044*[#   5]+0.022*[#   3]+0.022*[#   4]+0.022*[#   7]
          +0.022*[#   8]
    |psi|^2 = 0.174
==== e(  10) =    11.55048 eV ==== 

    |psi|^2 = 0.000
==== e(  11) =    11.55427 eV ==== 

    |psi|^2 = 0.002
==== e(  12) =    12.56929 eV ==== 

    |psi|^2 = 0.000
==== e(  13) =    12.67280 eV ==== 
     psi = 0.026*[#   1]+0.026*[#   5]+0.012*[#   3]+0.012*[#   4]+0.012*[#   7]
          +0.012*[#   8]
    |psi|^2 = 0.099
==== e(  14) =    12.84425 eV ==== 
     psi = 0.010*[#   1]+0.010*[#   5]+0.005*[#   3]+0.005*[#   4]+0.005*[#   7]
          +0.005*[#   8]
    |psi|^2 = 0.039
==== e(  15) =    12.86188 eV ==== 

    |psi|^2 = 0.000
==== e(  16) =    13.12381 eV ==== 
     psi = 0.021*[#   1]+0.021*[#   5]+0.010*[#   3]+0.010*[#   4]+0.010*[#   7]
          +0.010*[#   8]
    |psi|^2 = 0.080

 k =   0.3125000000  0.5653221386  0.0000000000
==== e(   1) =   -15.22466 eV ==== 
     psi = 0.240*[#   1]+0.240*[#   5]+0.128*[#   3]+0.128*[#   4]+0.128*[#   7]
          +0.128*[#   8]
    |psi|^2 = 0.993
==== e(   2) =   -14.74505 eV ==== 
     psi = 0.222*[#   1]+0.222*[#   5]+0.137*[#   3]+0.137*[#   4]+0.137*[#   7]
          +0.137*[#   8]
    |psi|^2 = 0.993
==== e(   3) =   -12.84629 eV ==== 
     psi = 0.243*[#   3]+0.243*[#   4]+0.243*[#   7]+0.243*[#   8]+0.005*[#   1]
          +0.005*[#   5]
    |psi|^2 = 0.982
==== e(   4) =    -2.69077 eV ==== 
     psi = 0.497*[#   2]+0.497*[#   6]
    |psi|^2 = 0.995
==== e(   5) =    -2.02254 eV ==== 
     psi = 0.496*[#   2]+0.496*[#   6]
    |psi|^2 = 0.992
==== e(   6) =     8.28142 eV ==== 

    |psi|^2 = 0.000
==== e(   7) =    10.28363 eV ==== 
     psi = 0.062*[#   1]+0.062*[#   5]+0.019*[#   3]+0.019*[#   4]+0.019*[#   7]
          +0.019*[#   8]
    |psi|^2 = 0.199
==== e(   8) =    10.56076 eV ==== 
     psi = 0.122*[#   1]+0.122*[#   5]+0.039*[#   3]+0.039*[#   4]+0.039*[#   7]
          +0.039*[#   8]
    |psi|^2 = 0.399
==== e(   9) =    11.06106 eV ==== 
     psi = 0.030*[#   1]+0.030*[#   5]+0.015*[#   3]+0.015*[#   4]+0.015*[#   7]
          +0.015*[#   8]
    |psi|^2 = 0.122
==== e(  10) =    11.83835 eV ==== 

    |psi|^2 = 0.000
==== e(  11) =    11.86976 eV ==== 
     psi = 0.002*[#   1]+0.002*[#   5]
    |psi|^2 = 0.009
==== e(  12) =    12.50453 eV ==== 

    |psi|^2 = 0.000
==== e(  13) =    12.50839 eV ==== 
     psi = 0.011*[#   1]+0.011*[#   5]+0.005*[#   3]+0.005*[#   4]+0.005*[#   7]
          +0.005*[#   8]
    |psi|^2 = 0.041
==== e(  14) =    12.89081 eV ==== 
     psi = 0.040*[#   1]+0.040*[#   5]+0.019*[#   3]+0.019*[#   4]+0.019*[#   7]
          +0.019*[#   8]
    |psi|^2 = 0.156
==== e(  15) =    12.91083 eV ==== 

    |psi|^2 = 0.000
==== e(  16) =    13.09740 eV ==== 
     psi = 0.032*[#   1]+0.032*[#   5]+0.015*[#   3]+0.015*[#   4]+0.015*[#   7]
          +0.015*[#   8]
    |psi|^2 = 0.121

 k =   0.3125000000  0.5773502692  0.0000000000
==== e(   1) =   -15.16317 eV ==== 
     psi = 0.242*[#   1]+0.242*[#   5]+0.127*[#   3]+0.127*[#   4]+0.127*[#   7]
          +0.127*[#   8]
    |psi|^2 = 0.994
==== e(   2) =   -14.79898 eV ==== 
     psi = 0.221*[#   1]+0.221*[#   5]+0.138*[#   3]+0.138*[#   4]+0.138*[#   7]
          +0.138*[#   8]
    |psi|^2 = 0.993
==== e(   3) =   -12.85914 eV ==== 
     psi = 0.243*[#   3]+0.243*[#   4]+0.243*[#   7]+0.243*[#   8]+0.005*[#   1]
          +0.005*[#   5]
    |psi|^2 = 0.981
==== e(   4) =    -2.63576 eV ==== 
     psi = 0.497*[#   2]+0.497*[#   6]
    |psi|^2 = 0.995
==== e(   5) =    -2.07703 eV ==== 
     psi = 0.496*[#   2]+0.496*[#   6]
    |psi|^2 = 0.993
==== e(   6) =     8.27702 eV ==== 

    |psi|^2 = 0.000
==== e(   7) =    10.38806 eV ==== 
     psi = 0.074*[#   1]+0.074*[#   5]+0.023*[#   3]+0.023*[#   4]+0.023*[#   7]
          +0.023*[#   8]
    |psi|^2 = 0.242
==== e(   8) =    10.50569 eV ==== 
     psi = 0.109*[#   1]+0.109*[#   5]+0.034*[#   3]+0.034*[#   4]+0.034*[#   7]
          +0.034*[#   8]
    |psi|^2 = 0.355
==== e(   9) =    11.05403 eV ==== 
     psi = 0.025*[#   1]+0.025*[#   5]+0.013*[#   3]+0.013*[#   4]+0.013*[#   7]
          +0.013*[#   8]
    |psi|^2 = 0.103
==== e(  10) =    12.03099 eV ==== 

    |psi|^2 = 0.000
==== e(  11) =    12.17180 eV ==== 
     psi = 0.009*[#   1]+0.009*[#   5]+0.004*[#   3]+0.004*[#   4]+0.004*[#   7]
          +0.004*[#   8]
    |psi|^2 = 0.034
==== e(  12) =    12.20897 eV ==== 

    |psi|^2 = 0.004
==== e(  13) =    12.32464 eV ==== 

    |psi|^2 = 0.000
==== e(  14) =    12.98932 eV ==== 
     psi = 0.066*[#   1]+0.066*[#   5]+0.032*[#   3]+0.032*[#   4]+0.032*[#   7]
          +0.032*[#   8]
    |psi|^2 = 0.260
==== e(  15) =    13.06442 eV ==== 
     psi = 0.036*[#   1]+0.036*[#   5]+0.016*[#   3]+0.016*[#   4]+0.016*[#   7]
          +0.016*[#   8]
    |psi|^2 = 0.135
==== e(  16) =    13.08725 eV ==== 

    |psi|^2 = 0.000

 k =   0.3229166667  0.5593080733  0.0000000000
==== e(   1) =   -15.20781 eV ==== 
     psi = 0.238*[#   1]+0.238*[#   5]+0.129*[#   3]+0.129*[#   4]+0.129*[#   7]
          +0.129*[#   8]
    |psi|^2 = 0.993
==== e(   2) =   -14.74590 eV ==== 
     psi = 0.226*[#   1]+0.226*[#   5]+0.136*[#   3]+0.136*[#   4]+0.136*[#   7]
          +0.136*[#   8]
    |psi|^2 = 0.994
==== e(   3) =   -12.86721 eV ==== 
     psi = 0.244*[#   3]+0.244*[#   4]+0.244*[#   7]+0.244*[#   8]+0.003*[#   1]
          +0.003*[#   5]
    |psi|^2 = 0.981
==== e(   4) =    -2.65500 eV ==== 
     psi = 0.497*[#   2]+0.497*[#   6]
    |psi|^2 = 0.994
==== e(   5) =    -2.05679 eV ==== 
     psi = 0.496*[#   2]+0.496*[#   6]
    |psi|^2 = 0.993
==== e(   6) =     8.27486 eV ==== 

    |psi|^2 = 0.000
==== e(   7) =    10.28423 eV ==== 
     psi = 0.061*[#   1]+0.061*[#   5]+0.019*[#   3]+0.019*[#   4]+0.019*[#   7]
          +0.019*[#   8]
    |psi|^2 = 0.198
==== e(   8) =    10.59199 eV ==== 
     psi = 0.126*[#   1]+0.126*[#   5]+0.040*[#   3]+0.040*[#   4]+0.040*[#   7]
          +0.040*[#   8]
    |psi|^2 = 0.411
==== e(   9) =    11.09169 eV ==== 
     psi = 0.024*[#   1]+0.024*[#   5]+0.013*[#   3]+0.013*[#   4]+0.013*[#   7]
          +0.013*[#   8]
    |psi|^2 = 0.101
==== e(  10) =    11.84319 eV ==== 

    |psi|^2 = 0.000
==== e(  11) =    11.86693 eV ==== 
     psi = 0.002*[#   1]+0.002*[#   5]
    |psi|^2 = 0.008
==== e(  12) =    12.70709 eV ==== 

    |psi|^2 = 0.000
==== e(  13) =    12.78807 eV ==== 

    |psi|^2 = 0.000
==== e(  14) =    12.79062 eV ==== 
     psi = 0.021*[#   1]+0.021*[#   5]+0.009*[#   3]+0.009*[#   4]+0.009*[#   7]
          +0.009*[#   8]
    |psi|^2 = 0.078
==== e(  15) =    12.79243 eV ==== 
     psi = 0.031*[#   1]+0.031*[#   5]+0.014*[#   3]+0.014*[#   4]+0.014*[#   7]
          +0.014*[#   8]
    |psi|^2 = 0.119
==== e(  16) =    12.95133 eV ==== 
     psi = 0.014*[#   1]+0.014*[#   5]+0.006*[#   3]+0.006*[#   4]+0.006*[#   7]
          +0.006*[#   8]
    |psi|^2 = 0.053

 k =   0.3229166667  0.5713362039  0.0000000000
==== e(   1) =   -15.08730 eV ==== 
     psi = 0.238*[#   1]+0.238*[#   5]+0.129*[#   3]+0.129*[#   4]+0.129*[#   7]
          +0.129*[#   8]
    |psi|^2 = 0.993
==== e(   2) =   -14.84668 eV ==== 
     psi = 0.228*[#   1]+0.228*[#   5]+0.134*[#   3]+0.134*[#   4]+0.134*[#   7]
          +0.134*[#   8]
    |psi|^2 = 0.994
==== e(   3) =   -12.89736 eV ==== 
     psi = 0.245*[#   3]+0.245*[#   4]+0.245*[#   7]+0.245*[#   8]+0.001*[#   1]
          +0.001*[#   5]
    |psi|^2 = 0.981
==== e(   4) =    -2.52225 eV ==== 
     psi = 0.497*[#   2]+0.497*[#   6]
    |psi|^2 = 0.994
==== e(   5) =    -2.18797 eV ==== 
     psi = 0.497*[#   2]+0.497*[#   6]
    |psi|^2 = 0.993
==== e(   6) =     8.26485 eV ==== 

    |psi|^2 = 0.000
==== e(   7) =    10.42222 eV ==== 
     psi = 0.080*[#   1]+0.080*[#   5]+0.025*[#   3]+0.025*[#   4]+0.025*[#   7]
          +0.025*[#   8]
    |psi|^2 = 0.263
==== e(   8) =    10.54750 eV ==== 
     psi = 0.111*[#   1]+0.111*[#   5]+0.035*[#   3]+0.035*[#   4]+0.035*[#   7]
          +0.035*[#   8]
    |psi|^2 = 0.362
==== e(   9) =    11.09530 eV ==== 
     psi = 0.010*[#   1]+0.010*[#   5]+0.007*[#   3]+0.007*[#   4]+0.007*[#   7]
          +0.007*[#   8]
    |psi|^2 = 0.047
==== e(  10) =    12.11861 eV ==== 

    |psi|^2 = 0.000
==== e(  11) =    12.18283 eV ==== 
     psi = 0.005*[#   1]+0.005*[#   5]+0.002*[#   3]+0.002*[#   4]+0.002*[#   7]
          +0.002*[#   8]
    |psi|^2 = 0.020
==== e(  12) =    12.48376 eV ==== 

    |psi|^2 = 0.000
==== e(  13) =    12.50000 eV ==== 
     psi = 0.010*[#   1]+0.010*[#   5]+0.004*[#   3]+0.004*[#   4]+0.004*[#   7]
          +0.004*[#   8]
    |psi|^2 = 0.036
==== e(  14) =    12.80057 eV ==== 
     psi = 0.019*[#   1]+0.019*[#   5]+0.008*[#   3]+0.008*[#   4]+0.008*[#   7]
          +0.008*[#   8]
    |psi|^2 = 0.071
==== e(  15) =    12.88255 eV ==== 

    |psi|^2 = 0.000
==== e(  16) =    13.05112 eV ==== 
     psi = 0.060*[#   1]+0.060*[#   5]+0.028*[#   3]+0.028*[#   4]+0.028*[#   7]
          +0.028*[#   8]
    |psi|^2 = 0.232

 k =   0.3333333333  0.5773502692  0.0000000000
==== e(   1) =   -14.96089 eV ==== 
     psi = 0.234*[#   1]+0.234*[#   5]+0.131*[#   3]+0.131*[#   4]+0.131*[#   7]
          +0.131*[#   8]
    |psi|^2 = 0.994
==== e(   2) =   -14.96089 eV ==== 
     psi = 0.234*[#   1]+0.234*[#   5]+0.131*[#   3]+0.131*[#   4]+0.131*[#   7]
          +0.131*[#   8]
    |psi|^2 = 0.994
==== e(   3) =   -12.91469 eV ==== 
     psi = 0.245*[#   3]+0.245*[#   4]+0.245*[#   7]+0.245*[#   8]
    |psi|^2 = 0.981
==== e(   4) =    -2.35460 eV ==== 
     psi = 0.497*[#   2]+0.497*[#   6]
    |psi|^2 = 0.994
==== e(   5) =    -2.35460 eV ==== 
     psi = 0.497*[#   2]+0.497*[#   6]
    |psi|^2 = 0.994
==== e(   6) =     8.25924 eV ==== 

    |psi|^2 = 0.000
==== e(   7) =    10.50745 eV ==== 
     psi = 0.098*[#   1]+0.098*[#   5]+0.031*[#   3]+0.031*[#   4]+0.031*[#   7]
          +0.031*[#   8]
    |psi|^2 = 0.321
==== e(   8) =    10.50745 eV ==== 
     psi = 0.098*[#   1]+0.098*[#   5]+0.031*[#   3]+0.031*[#   4]+0.031*[#   7]
          +0.031*[#   8]
    |psi|^2 = 0.321
==== e(   9) =    11.10482 eV ==== 
     psi = 0.003*[#   3]+0.003*[#   4]+0.003*[#   7]+0.003*[#   8]
    |psi|^2 = 0.012
==== e(  10) =    12.35862 eV ==== 

    |psi|^2 = 0.000
==== e(  11) =    12.35862 eV ==== 

    |psi|^2 = 0.000
==== e(  12) =    12.47724 eV ==== 
     psi = 0.014*[#   1]+0.014*[#   5]+0.006*[#   3]+0.006*[#   4]+0.006*[#   7]
          +0.006*[#   8]
    |psi|^2 = 0.052
==== e(  13) =    12.47724 eV ==== 
     psi = 0.014*[#   1]+0.014*[#   5]+0.006*[#   3]+0.006*[#   4]+0.006*[#   7]
          +0.006*[#   8]
    |psi|^2 = 0.052
==== e(  14) =    12.53722 eV ==== 

    |psi|^2 = 0.001
==== e(  15) =    12.79495 eV ==== 

    |psi|^2 = 0.000
==== e(  16) =    13.15763 eV ==== 
     psi = 0.070*[#   1]+0.070*[#   5]+0.033*[#   3]+0.033*[#   4]+0.033*[#   7]
          +0.033*[#   8]
    |psi|^2 = 0.271

Lowdin Charges: 

     Atom #   1: total charge =   3.9559, s =  0.9003, 
     Atom #   1: total charge =   3.9559, p =  3.0555, pz=  0.9867, px=  1.0344, py=  1.0344, 
     Atom #   2: total charge =   3.9559, s =  0.9003, 
     Atom #   2: total charge =   3.9559, p =  3.0555, pz=  0.9867, px=  1.0344, py=  1.0344, 
     Spilling Parameter:   0.0110

     PROJWFC      :      2.78s CPU      5.33s WALL


   This run was terminated on:  20:59:12  10Dec2023            

=------------------------------------------------------------------------------=
   JOB DONE.
=------------------------------------------------------------------------------=
