
     Program PWSCF v.7.2 starts on 10Dec2023 at 19:35:33 

     This program is part of the open-source Quantum ESPRESSO suite
     for quantum simulation of materials; please cite
         "P. Giannozzi et al., J. Phys.:Condens. Matter 21 395502 (2009);
         "P. Giannozzi et al., J. Phys.:Condens. Matter 29 465901 (2017);
         "P. Giannozzi et al., J. Chem. Phys. 152 154105 (2020);
          URL http://www.quantum-espresso.org", 
     in publications or presentations arising from this work. More details at
     http://www.quantum-espresso.org/quote

     Parallel version (MPI & OpenMP), running on      16 processor cores
     Number of MPI processes:                16
     Threads/MPI process:                     1

     MPI processes distributed on     1 nodes
     510534 MiB available memory on the printing compute node when the environment starts

     Reading input from graphene.nscf.pwi

     Current dimensions of program PWSCF are:
     Max number of different atomic species (ntypx) = 10
     Max number of k-points (npk) =  40000
     Max angular momentum in pseudopotentials (lmaxx) =  4

     Atomic positions and unit cell read from directory:
     ../SCF/out/graphene.save/
     Atomic positions from file used, from input discarded

     file C.pbe-n-kjpaw_psl.1.0.0.UPF: wavefunction(s)  2S 2P renormalized

     R & G space division:  proc/nbgrp/npool/nimage =      16
     Subspace diagonalization in iterative solution of the eigenvalue problem:
     a serial algorithm will be used


     Parallelization info
     --------------------
     sticks:   dense  smooth     PW     G-vecs:    dense   smooth      PW
     Min          29      29      9                 4273     4273     711
     Max          30      30     10                 4306     4306     728
     Sum         475     475    151                68705    68705   11537

     Using Slab Decomposition


     Title: 
     graphene                                                                   


     bravais-lattice index     =            4
     lattice parameter (alat)  =       4.6627  a.u.
     unit-cell volume          =     711.6007 (a.u.)^3
     number of atoms/cell      =            2
     number of atomic types    =            1
     number of electrons       =         8.00
     number of Kohn-Sham states=           16
     kinetic-energy cutoff     =      80.0000  Ry
     charge density cutoff     =     320.0000  Ry
     Exchange-correlation= SLA  PW   PBX  PBC
                           (   1   4   3   4   0   0   0)

     celldm(1)=   4.662710  celldm(2)=   0.000000  celldm(3)=   8.105698
     celldm(4)=   0.000000  celldm(5)=   0.000000  celldm(6)=   0.000000

     crystal axes: (cart. coord. in units of alat)
               a(1) = (   1.000000   0.000000   0.000000 )  
               a(2) = (  -0.500000   0.866025   0.000000 )  
               a(3) = (   0.000000   0.000000   8.105698 )  

     reciprocal axes: (cart. coord. in units 2 pi/alat)
               b(1) = (  1.000000  0.577350 -0.000000 )  
               b(2) = (  0.000000  1.154701  0.000000 )  
               b(3) = (  0.000000 -0.000000  0.123370 )  


     PseudoPot. # 1 for C  read from file:
     /home/caique.campos/Tutorial-espresso-2023/Graphene/pseudos/C.pbe-n-kjpaw_psl.1.0.0.UPF
     MD5 check sum: 5d2aebdfa2cae82b50a7e79e9516da0f
     Pseudo is Projector augmented-wave + core cor, Zval =  4.0
     Generated using "atomic" code by A. Dal Corso  v.5.1
     Shape of augmentation charge: PSQ
     Using radial grid of 1073 points,  4 beta functions with: 
                l(1) =   0
                l(2) =   0
                l(3) =   1
                l(4) =   1
     Q(r) pseudized with 0 coefficients 


     atomic species   valence    mass     pseudopotential
        C              4.00    12.01100     C ( 1.00)

     24 Sym. Ops., with inversion, found (18 have fractional translation)


                                    s                        frac. trans.

      isym =  1     identity                                     

 cryst.   s( 1) = (     1          0          0      )
                  (     0          1          0      )
                  (     0          0          1      )

 cart.    s( 1) = (  1.0000000  0.0000000  0.0000000 )
                  (  0.0000000  1.0000000  0.0000000 )
                  (  0.0000000  0.0000000  1.0000000 )


      isym =  2     180 deg rotation - cart. axis [0,0,1]        

 cryst.   s( 2) = (    -1          0          0      )    f =( -0.3333333 )
                  (     0         -1          0      )       (  0.3333333 )
                  (     0          0          1      )       (  0.0000000 )

 cart.    s( 2) = ( -1.0000000  0.0000000  0.0000000 )    f =( -0.5000000 )
                  (  0.0000000 -1.0000000  0.0000000 )       (  0.2886751 )
                  (  0.0000000  0.0000000  1.0000000 )       (  0.0000000 )


      isym =  3     180 deg rotation - cart. axis [0,1,0]        

 cryst.   s( 3) = (    -1          0          0      )    f =(  0.0000000 )
                  (     1          1          0      )       (  0.0000000 )
                  (     0          0         -1      )       ( -0.5000000 )

 cart.    s( 3) = ( -1.0000000 -0.0000000  0.0000000 )    f =(  0.0000000 )
                  (  0.0000000  1.0000000  0.0000000 )       (  0.0000000 )
                  (  0.0000000  0.0000000 -1.0000000 )       ( -4.0528492 )


      isym =  4     180 deg rotation - cart. axis [1,0,0]        

 cryst.   s( 4) = (     1          0          0      )    f =( -0.3333333 )
                  (    -1         -1          0      )       (  0.3333333 )
                  (     0          0         -1      )       ( -0.5000000 )

 cart.    s( 4) = (  1.0000000  0.0000000  0.0000000 )    f =( -0.5000000 )
                  (  0.0000000 -1.0000000  0.0000000 )       (  0.2886751 )
                  (  0.0000000  0.0000000 -1.0000000 )       ( -4.0528492 )


      isym =  5      60 deg rotation - cryst. axis [0,0,1]       

 cryst.   s( 5) = (     1          1          0      )    f =( -0.3333333 )
                  (    -1          0          0      )       (  0.3333333 )
                  (     0          0          1      )       (  0.0000000 )

 cart.    s( 5) = (  0.5000000 -0.8660254  0.0000000 )    f =( -0.5000000 )
                  (  0.8660254  0.5000000  0.0000000 )       (  0.2886751 )
                  (  0.0000000  0.0000000  1.0000000 )       (  0.0000000 )


      isym =  6      60 deg rotation - cryst. axis [0,0,-1]      

 cryst.   s( 6) = (     0         -1          0      )    f =( -0.3333333 )
                  (     1          1          0      )       (  0.3333333 )
                  (     0          0          1      )       (  0.0000000 )

 cart.    s( 6) = (  0.5000000  0.8660254  0.0000000 )    f =( -0.5000000 )
                  ( -0.8660254  0.5000000  0.0000000 )       (  0.2886751 )
                  (  0.0000000  0.0000000  1.0000000 )       (  0.0000000 )


      isym =  7     120 deg rotation - cryst. axis [0,0,1]       

 cryst.   s( 7) = (     0          1          0      )
                  (    -1         -1          0      )
                  (     0          0          1      )

 cart.    s( 7) = ( -0.5000000 -0.8660254  0.0000000 )
                  (  0.8660254 -0.5000000  0.0000000 )
                  (  0.0000000  0.0000000  1.0000000 )


      isym =  8     120 deg rotation - cryst. axis [0,0,-1]      

 cryst.   s( 8) = (    -1         -1          0      )
                  (     1          0          0      )
                  (     0          0          1      )

 cart.    s( 8) = ( -0.5000000  0.8660254  0.0000000 )
                  ( -0.8660254 -0.5000000  0.0000000 )
                  (  0.0000000  0.0000000  1.0000000 )


      isym =  9     180 deg rotation - cryst. axis [1,-1,0]      

 cryst.   s( 9) = (     0         -1          0      )    f =(  0.0000000 )
                  (    -1          0          0      )       (  0.0000000 )
                  (     0          0         -1      )       ( -0.5000000 )

 cart.    s( 9) = (  0.5000000 -0.8660254  0.0000000 )    f =(  0.0000000 )
                  ( -0.8660254 -0.5000000  0.0000000 )       (  0.0000000 )
                  (  0.0000000  0.0000000 -1.0000000 )       ( -4.0528492 )


      isym = 10     180 deg rotation - cryst. axis [2,1,0]       

 cryst.   s(10) = (     1          1          0      )    f =(  0.0000000 )
                  (     0         -1          0      )       (  0.0000000 )
                  (     0          0         -1      )       ( -0.5000000 )

 cart.    s(10) = (  0.5000000  0.8660254  0.0000000 )    f =(  0.0000000 )
                  (  0.8660254 -0.5000000  0.0000000 )       (  0.0000000 )
                  (  0.0000000  0.0000000 -1.0000000 )       ( -4.0528492 )


      isym = 11     180 deg rotation - cryst. axis [0,1,0]       

 cryst.   s(11) = (    -1         -1          0      )    f =( -0.3333333 )
                  (     0          1          0      )       (  0.3333333 )
                  (     0          0         -1      )       ( -0.5000000 )

 cart.    s(11) = ( -0.5000000 -0.8660254  0.0000000 )    f =( -0.5000000 )
                  ( -0.8660254  0.5000000  0.0000000 )       (  0.2886751 )
                  (  0.0000000  0.0000000 -1.0000000 )       ( -4.0528492 )


      isym = 12     180 deg rotation - cryst. axis [1,1,0]       

 cryst.   s(12) = (     0          1          0      )    f =( -0.3333333 )
                  (     1          0          0      )       (  0.3333333 )
                  (     0          0         -1      )       ( -0.5000000 )

 cart.    s(12) = ( -0.5000000  0.8660254  0.0000000 )    f =( -0.5000000 )
                  (  0.8660254  0.5000000  0.0000000 )       (  0.2886751 )
                  (  0.0000000  0.0000000 -1.0000000 )       ( -4.0528492 )


      isym = 13     inversion                                    

 cryst.   s(13) = (    -1          0          0      )    f =( -0.3333333 )
                  (     0         -1          0      )       (  0.3333333 )
                  (     0          0         -1      )       ( -0.5000000 )

 cart.    s(13) = ( -1.0000000  0.0000000  0.0000000 )    f =( -0.5000000 )
                  (  0.0000000 -1.0000000  0.0000000 )       (  0.2886751 )
                  (  0.0000000  0.0000000 -1.0000000 )       ( -4.0528492 )


      isym = 14     inv. 180 deg rotation - cart. axis [0,0,1]   

 cryst.   s(14) = (     1          0          0      )    f =(  0.0000000 )
                  (     0          1          0      )       (  0.0000000 )
                  (     0          0         -1      )       ( -0.5000000 )

 cart.    s(14) = (  1.0000000  0.0000000  0.0000000 )    f =(  0.0000000 )
                  (  0.0000000  1.0000000  0.0000000 )       (  0.0000000 )
                  (  0.0000000  0.0000000 -1.0000000 )       ( -4.0528492 )


      isym = 15     inv. 180 deg rotation - cart. axis [0,1,0]   

 cryst.   s(15) = (     1          0          0      )    f =( -0.3333333 )
                  (    -1         -1          0      )       (  0.3333333 )
                  (     0          0          1      )       (  0.0000000 )

 cart.    s(15) = (  1.0000000  0.0000000  0.0000000 )    f =( -0.5000000 )
                  (  0.0000000 -1.0000000  0.0000000 )       (  0.2886751 )
                  (  0.0000000  0.0000000  1.0000000 )       (  0.0000000 )


      isym = 16     inv. 180 deg rotation - cart. axis [1,0,0]   

 cryst.   s(16) = (    -1          0          0      )
                  (     1          1          0      )
                  (     0          0          1      )

 cart.    s(16) = ( -1.0000000 -0.0000000  0.0000000 )
                  (  0.0000000  1.0000000  0.0000000 )
                  (  0.0000000  0.0000000  1.0000000 )


      isym = 17     inv.  60 deg rotation - cryst. axis [0,0,1]  

 cryst.   s(17) = (    -1         -1          0      )    f =(  0.0000000 )
                  (     1          0          0      )       (  0.0000000 )
                  (     0          0         -1      )       ( -0.5000000 )

 cart.    s(17) = ( -0.5000000  0.8660254  0.0000000 )    f =(  0.0000000 )
                  ( -0.8660254 -0.5000000  0.0000000 )       (  0.0000000 )
                  (  0.0000000  0.0000000 -1.0000000 )       ( -4.0528492 )


      isym = 18     inv.  60 deg rotation - cryst. axis [0,0,-1] 

 cryst.   s(18) = (     0          1          0      )    f =(  0.0000000 )
                  (    -1         -1          0      )       (  0.0000000 )
                  (     0          0         -1      )       ( -0.5000000 )

 cart.    s(18) = ( -0.5000000 -0.8660254  0.0000000 )    f =(  0.0000000 )
                  (  0.8660254 -0.5000000  0.0000000 )       (  0.0000000 )
                  (  0.0000000  0.0000000 -1.0000000 )       ( -4.0528492 )


      isym = 19     inv. 120 deg rotation - cryst. axis [0,0,1]  

 cryst.   s(19) = (     0         -1          0      )    f =( -0.3333333 )
                  (     1          1          0      )       (  0.3333333 )
                  (     0          0         -1      )       ( -0.5000000 )

 cart.    s(19) = (  0.5000000  0.8660254  0.0000000 )    f =( -0.5000000 )
                  ( -0.8660254  0.5000000  0.0000000 )       (  0.2886751 )
                  (  0.0000000  0.0000000 -1.0000000 )       ( -4.0528492 )


      isym = 20     inv. 120 deg rotation - cryst. axis [0,0,-1] 

 cryst.   s(20) = (     1          1          0      )    f =( -0.3333333 )
                  (    -1          0          0      )       (  0.3333333 )
                  (     0          0         -1      )       ( -0.5000000 )

 cart.    s(20) = (  0.5000000 -0.8660254  0.0000000 )    f =( -0.5000000 )
                  (  0.8660254  0.5000000  0.0000000 )       (  0.2886751 )
                  (  0.0000000  0.0000000 -1.0000000 )       ( -4.0528492 )


      isym = 21     inv. 180 deg rotation - cryst. axis [1,-1,0] 

 cryst.   s(21) = (     0          1          0      )    f =( -0.3333333 )
                  (     1          0          0      )       (  0.3333333 )
                  (     0          0          1      )       (  0.0000000 )

 cart.    s(21) = ( -0.5000000  0.8660254  0.0000000 )    f =( -0.5000000 )
                  (  0.8660254  0.5000000  0.0000000 )       (  0.2886751 )
                  (  0.0000000  0.0000000  1.0000000 )       (  0.0000000 )


      isym = 22     inv. 180 deg rotation - cryst. axis [2,1,0]  

 cryst.   s(22) = (    -1         -1          0      )    f =( -0.3333333 )
                  (     0          1          0      )       (  0.3333333 )
                  (     0          0          1      )       (  0.0000000 )

 cart.    s(22) = ( -0.5000000 -0.8660254  0.0000000 )    f =( -0.5000000 )
                  ( -0.8660254  0.5000000  0.0000000 )       (  0.2886751 )
                  (  0.0000000  0.0000000  1.0000000 )       (  0.0000000 )


      isym = 23     inv. 180 deg rotation - cryst. axis [0,1,0]  

 cryst.   s(23) = (     1          1          0      )
                  (     0         -1          0      )
                  (     0          0          1      )

 cart.    s(23) = (  0.5000000  0.8660254  0.0000000 )
                  (  0.8660254 -0.5000000  0.0000000 )
                  (  0.0000000  0.0000000  1.0000000 )


      isym = 24     inv. 180 deg rotation - cryst. axis [1,1,0]  

 cryst.   s(24) = (     0         -1          0      )
                  (    -1          0          0      )
                  (     0          0          1      )

 cart.    s(24) = (  0.5000000 -0.8660254  0.0000000 )
                  ( -0.8660254 -0.5000000  0.0000000 )
                  (  0.0000000  0.0000000  1.0000000 )


     point group D_6h(6/mmm)
     there are 12 classes
     the character table:

       E     2C6   2C3   C2    3C2'  3C2'' i     2S3   2S6   s_h   3s_d  3s_v 
A_1g   1.00  1.00  1.00  1.00  1.00  1.00  1.00  1.00  1.00  1.00  1.00  1.00
A_2g   1.00  1.00  1.00  1.00 -1.00 -1.00  1.00  1.00  1.00  1.00 -1.00 -1.00
B_1g   1.00 -1.00  1.00 -1.00  1.00 -1.00  1.00 -1.00  1.00 -1.00  1.00 -1.00
B_2g   1.00 -1.00  1.00 -1.00 -1.00  1.00  1.00 -1.00  1.00 -1.00 -1.00  1.00
E_1g   2.00  1.00 -1.00 -2.00  0.00  0.00  2.00  1.00 -1.00 -2.00  0.00  0.00
E_2g   2.00 -1.00 -1.00  2.00  0.00  0.00  2.00 -1.00 -1.00  2.00  0.00  0.00
A_1u   1.00  1.00  1.00  1.00  1.00  1.00 -1.00 -1.00 -1.00 -1.00 -1.00 -1.00
A_2u   1.00  1.00  1.00  1.00 -1.00 -1.00 -1.00 -1.00 -1.00 -1.00  1.00  1.00
B_1u   1.00 -1.00  1.00 -1.00  1.00 -1.00 -1.00  1.00 -1.00  1.00 -1.00  1.00
B_2u   1.00 -1.00  1.00 -1.00 -1.00  1.00 -1.00  1.00 -1.00  1.00  1.00 -1.00
E_1u   2.00  1.00 -1.00 -2.00  0.00  0.00 -2.00 -1.00  1.00  2.00  0.00  0.00
E_2u   2.00 -1.00 -1.00  2.00  0.00  0.00 -2.00  1.00  1.00 -2.00  0.00  0.00

     the symmetry operations in each class and the name of the first element:

     E        1
          identity                                               
     2C6      5    6
           60 deg rotation - cryst. axis [0,0,1]                 
     2C3      7    8
          120 deg rotation - cryst. axis [0,0,1]                 
     C2       2
          180 deg rotation - cart. axis [0,0,1]                  
     3C2'     4   12   11
          180 deg rotation - cart. axis [1,0,0]                  
     3C2''    3    9   10
          180 deg rotation - cart. axis [0,1,0]                  
     i       13
          inversion                                              
     2S3     17   18
          inv.  60 deg rotation - cryst. axis [0,0,1]            
     2S6     19   20
          inv. 120 deg rotation - cryst. axis [0,0,1]            
     s_h     14
          inv. 180 deg rotation - cart. axis [0,0,1]             
     3s_d    16   24   23
          inv. 180 deg rotation - cart. axis [1,0,0]             
     3s_v    15   21   22
          inv. 180 deg rotation - cart. axis [0,1,0]             

   Cartesian axes

     site n.     atom                  positions (alat units)
         1           C   tau(   1) = (   0.0000000   0.0000000   2.0264246  )
         2           C   tau(   2) = (  -0.0000000   0.5773503   2.0264246  )

   Crystallographic axes

     site n.     atom                  positions (cryst. coord.)
         1           C   tau(   1) = (  0.0000000  0.0000000  0.2500000  )
         2           C   tau(   2) = (  0.3333333  0.6666667  0.2500000  )

     number of k points=   817 (tetrahedron method)
                       cart. coord. in units 2pi/alat
        k(    1) = (   0.0000000   0.0000000   0.0000000), wk =   0.0002170
        k(    2) = (   0.0000000   0.0120281   0.0000000), wk =   0.0013021
        k(    3) = (   0.0000000   0.0240563   0.0000000), wk =   0.0013021
        k(    4) = (   0.0000000   0.0360844   0.0000000), wk =   0.0013021
        k(    5) = (   0.0000000   0.0481125   0.0000000), wk =   0.0013021
        k(    6) = (   0.0000000   0.0601407   0.0000000), wk =   0.0013021
        k(    7) = (   0.0000000   0.0721688   0.0000000), wk =   0.0013021
        k(    8) = (   0.0000000   0.0841969   0.0000000), wk =   0.0013021
        k(    9) = (   0.0000000   0.0962250   0.0000000), wk =   0.0013021
        k(   10) = (   0.0000000   0.1082532   0.0000000), wk =   0.0013021
        k(   11) = (   0.0000000   0.1202813   0.0000000), wk =   0.0013021
        k(   12) = (   0.0000000   0.1323094   0.0000000), wk =   0.0013021
        k(   13) = (   0.0000000   0.1443376   0.0000000), wk =   0.0013021
        k(   14) = (   0.0000000   0.1563657   0.0000000), wk =   0.0013021
        k(   15) = (   0.0000000   0.1683938   0.0000000), wk =   0.0013021
        k(   16) = (   0.0000000   0.1804220   0.0000000), wk =   0.0013021
        k(   17) = (   0.0000000   0.1924501   0.0000000), wk =   0.0013021
        k(   18) = (   0.0000000   0.2044782   0.0000000), wk =   0.0013021
        k(   19) = (   0.0000000   0.2165064   0.0000000), wk =   0.0013021
        k(   20) = (   0.0000000   0.2285345   0.0000000), wk =   0.0013021
        k(   21) = (   0.0000000   0.2405626   0.0000000), wk =   0.0013021
        k(   22) = (   0.0000000   0.2525907   0.0000000), wk =   0.0013021
        k(   23) = (   0.0000000   0.2646189   0.0000000), wk =   0.0013021
        k(   24) = (   0.0000000   0.2766470   0.0000000), wk =   0.0013021
        k(   25) = (   0.0000000   0.2886751   0.0000000), wk =   0.0013021
        k(   26) = (   0.0000000   0.3007033   0.0000000), wk =   0.0013021
        k(   27) = (   0.0000000   0.3127314   0.0000000), wk =   0.0013021
        k(   28) = (   0.0000000   0.3247595   0.0000000), wk =   0.0013021
        k(   29) = (   0.0000000   0.3367877   0.0000000), wk =   0.0013021
        k(   30) = (   0.0000000   0.3488158   0.0000000), wk =   0.0013021
        k(   31) = (   0.0000000   0.3608439   0.0000000), wk =   0.0013021
        k(   32) = (   0.0000000   0.3728720   0.0000000), wk =   0.0013021
        k(   33) = (   0.0000000   0.3849002   0.0000000), wk =   0.0013021
        k(   34) = (   0.0000000   0.3969283   0.0000000), wk =   0.0013021
        k(   35) = (   0.0000000   0.4089564   0.0000000), wk =   0.0013021
        k(   36) = (   0.0000000   0.4209846   0.0000000), wk =   0.0013021
        k(   37) = (   0.0000000   0.4330127   0.0000000), wk =   0.0013021
        k(   38) = (   0.0000000   0.4450408   0.0000000), wk =   0.0013021
        k(   39) = (   0.0000000   0.4570690   0.0000000), wk =   0.0013021
        k(   40) = (   0.0000000   0.4690971   0.0000000), wk =   0.0013021
        k(   41) = (   0.0000000   0.4811252   0.0000000), wk =   0.0013021
        k(   42) = (   0.0000000   0.4931534   0.0000000), wk =   0.0013021
        k(   43) = (   0.0000000   0.5051815   0.0000000), wk =   0.0013021
        k(   44) = (   0.0000000   0.5172096   0.0000000), wk =   0.0013021
        k(   45) = (   0.0000000   0.5292377   0.0000000), wk =   0.0013021
        k(   46) = (   0.0000000   0.5412659   0.0000000), wk =   0.0013021
        k(   47) = (   0.0000000   0.5532940   0.0000000), wk =   0.0013021
        k(   48) = (   0.0000000   0.5653221   0.0000000), wk =   0.0013021
        k(   49) = (   0.0000000  -0.5773503   0.0000000), wk =   0.0006510
        k(   50) = (   0.0104167   0.0180422   0.0000000), wk =   0.0013021
        k(   51) = (   0.0104167   0.0300703   0.0000000), wk =   0.0026042
        k(   52) = (   0.0104167   0.0420985   0.0000000), wk =   0.0026042
        k(   53) = (   0.0104167   0.0541266   0.0000000), wk =   0.0026042
        k(   54) = (   0.0104167   0.0661547   0.0000000), wk =   0.0026042
        k(   55) = (   0.0104167   0.0781828   0.0000000), wk =   0.0026042
        k(   56) = (   0.0104167   0.0902110   0.0000000), wk =   0.0026042
        k(   57) = (   0.0104167   0.1022391   0.0000000), wk =   0.0026042
        k(   58) = (   0.0104167   0.1142672   0.0000000), wk =   0.0026042
        k(   59) = (   0.0104167   0.1262954   0.0000000), wk =   0.0026042
        k(   60) = (   0.0104167   0.1383235   0.0000000), wk =   0.0026042
        k(   61) = (   0.0104167   0.1503516   0.0000000), wk =   0.0026042
        k(   62) = (   0.0104167   0.1623798   0.0000000), wk =   0.0026042
        k(   63) = (   0.0104167   0.1744079   0.0000000), wk =   0.0026042
        k(   64) = (   0.0104167   0.1864360   0.0000000), wk =   0.0026042
        k(   65) = (   0.0104167   0.1984642   0.0000000), wk =   0.0026042
        k(   66) = (   0.0104167   0.2104923   0.0000000), wk =   0.0026042
        k(   67) = (   0.0104167   0.2225204   0.0000000), wk =   0.0026042
        k(   68) = (   0.0104167   0.2345485   0.0000000), wk =   0.0026042
        k(   69) = (   0.0104167   0.2465767   0.0000000), wk =   0.0026042
        k(   70) = (   0.0104167   0.2586048   0.0000000), wk =   0.0026042
        k(   71) = (   0.0104167   0.2706329   0.0000000), wk =   0.0026042
        k(   72) = (   0.0104167   0.2826611   0.0000000), wk =   0.0026042
        k(   73) = (   0.0104167   0.2946892   0.0000000), wk =   0.0026042
        k(   74) = (   0.0104167   0.3067173   0.0000000), wk =   0.0026042
        k(   75) = (   0.0104167   0.3187455   0.0000000), wk =   0.0026042
        k(   76) = (   0.0104167   0.3307736   0.0000000), wk =   0.0026042
        k(   77) = (   0.0104167   0.3428017   0.0000000), wk =   0.0026042
        k(   78) = (   0.0104167   0.3548299   0.0000000), wk =   0.0026042
        k(   79) = (   0.0104167   0.3668580   0.0000000), wk =   0.0026042
        k(   80) = (   0.0104167   0.3788861   0.0000000), wk =   0.0026042
        k(   81) = (   0.0104167   0.3909142   0.0000000), wk =   0.0026042
        k(   82) = (   0.0104167   0.4029424   0.0000000), wk =   0.0026042
        k(   83) = (   0.0104167   0.4149705   0.0000000), wk =   0.0026042
        k(   84) = (   0.0104167   0.4269986   0.0000000), wk =   0.0026042
        k(   85) = (   0.0104167   0.4390268   0.0000000), wk =   0.0026042
        k(   86) = (   0.0104167   0.4510549   0.0000000), wk =   0.0026042
        k(   87) = (   0.0104167   0.4630830   0.0000000), wk =   0.0026042
        k(   88) = (   0.0104167   0.4751112   0.0000000), wk =   0.0026042
        k(   89) = (   0.0104167   0.4871393   0.0000000), wk =   0.0026042
        k(   90) = (   0.0104167   0.4991674   0.0000000), wk =   0.0026042
        k(   91) = (   0.0104167   0.5111956   0.0000000), wk =   0.0026042
        k(   92) = (   0.0104167   0.5232237   0.0000000), wk =   0.0026042
        k(   93) = (   0.0104167   0.5352518   0.0000000), wk =   0.0026042
        k(   94) = (   0.0104167   0.5472799   0.0000000), wk =   0.0026042
        k(   95) = (   0.0104167   0.5593081   0.0000000), wk =   0.0026042
        k(   96) = (   0.0104167   0.5713362   0.0000000), wk =   0.0026042
        k(   97) = (   0.0208333   0.0360844   0.0000000), wk =   0.0013021
        k(   98) = (   0.0208333   0.0481125   0.0000000), wk =   0.0026042
        k(   99) = (   0.0208333   0.0601407   0.0000000), wk =   0.0026042
        k(  100) = (   0.0208333   0.0721688   0.0000000), wk =   0.0026042
        k(  101) = (   0.0208333   0.0841969   0.0000000), wk =   0.0026042
        k(  102) = (   0.0208333   0.0962250   0.0000000), wk =   0.0026042
        k(  103) = (   0.0208333   0.1082532   0.0000000), wk =   0.0026042
        k(  104) = (   0.0208333   0.1202813   0.0000000), wk =   0.0026042
        k(  105) = (   0.0208333   0.1323094   0.0000000), wk =   0.0026042
        k(  106) = (   0.0208333   0.1443376   0.0000000), wk =   0.0026042
        k(  107) = (   0.0208333   0.1563657   0.0000000), wk =   0.0026042
        k(  108) = (   0.0208333   0.1683938   0.0000000), wk =   0.0026042
        k(  109) = (   0.0208333   0.1804220   0.0000000), wk =   0.0026042
        k(  110) = (   0.0208333   0.1924501   0.0000000), wk =   0.0026042
        k(  111) = (   0.0208333   0.2044782   0.0000000), wk =   0.0026042
        k(  112) = (   0.0208333   0.2165064   0.0000000), wk =   0.0026042
        k(  113) = (   0.0208333   0.2285345   0.0000000), wk =   0.0026042
        k(  114) = (   0.0208333   0.2405626   0.0000000), wk =   0.0026042
        k(  115) = (   0.0208333   0.2525907   0.0000000), wk =   0.0026042
        k(  116) = (   0.0208333   0.2646189   0.0000000), wk =   0.0026042
        k(  117) = (   0.0208333   0.2766470   0.0000000), wk =   0.0026042
        k(  118) = (   0.0208333   0.2886751   0.0000000), wk =   0.0026042
        k(  119) = (   0.0208333   0.3007033   0.0000000), wk =   0.0026042
        k(  120) = (   0.0208333   0.3127314   0.0000000), wk =   0.0026042
        k(  121) = (   0.0208333   0.3247595   0.0000000), wk =   0.0026042
        k(  122) = (   0.0208333   0.3367877   0.0000000), wk =   0.0026042
        k(  123) = (   0.0208333   0.3488158   0.0000000), wk =   0.0026042
        k(  124) = (   0.0208333   0.3608439   0.0000000), wk =   0.0026042
        k(  125) = (   0.0208333   0.3728720   0.0000000), wk =   0.0026042
        k(  126) = (   0.0208333   0.3849002   0.0000000), wk =   0.0026042
        k(  127) = (   0.0208333   0.3969283   0.0000000), wk =   0.0026042
        k(  128) = (   0.0208333   0.4089564   0.0000000), wk =   0.0026042
        k(  129) = (   0.0208333   0.4209846   0.0000000), wk =   0.0026042
        k(  130) = (   0.0208333   0.4330127   0.0000000), wk =   0.0026042
        k(  131) = (   0.0208333   0.4450408   0.0000000), wk =   0.0026042
        k(  132) = (   0.0208333   0.4570690   0.0000000), wk =   0.0026042
        k(  133) = (   0.0208333   0.4690971   0.0000000), wk =   0.0026042
        k(  134) = (   0.0208333   0.4811252   0.0000000), wk =   0.0026042
        k(  135) = (   0.0208333   0.4931534   0.0000000), wk =   0.0026042
        k(  136) = (   0.0208333   0.5051815   0.0000000), wk =   0.0026042
        k(  137) = (   0.0208333   0.5172096   0.0000000), wk =   0.0026042
        k(  138) = (   0.0208333   0.5292377   0.0000000), wk =   0.0026042
        k(  139) = (   0.0208333   0.5412659   0.0000000), wk =   0.0026042
        k(  140) = (   0.0208333   0.5532940   0.0000000), wk =   0.0026042
        k(  141) = (   0.0208333   0.5653221   0.0000000), wk =   0.0026042
        k(  142) = (   0.0208333   0.5773503   0.0000000), wk =   0.0013021
        k(  143) = (   0.0312500   0.0541266   0.0000000), wk =   0.0013021
        k(  144) = (   0.0312500   0.0661547   0.0000000), wk =   0.0026042
        k(  145) = (   0.0312500   0.0781828   0.0000000), wk =   0.0026042
        k(  146) = (   0.0312500   0.0902110   0.0000000), wk =   0.0026042
        k(  147) = (   0.0312500   0.1022391   0.0000000), wk =   0.0026042
        k(  148) = (   0.0312500   0.1142672   0.0000000), wk =   0.0026042
        k(  149) = (   0.0312500   0.1262954   0.0000000), wk =   0.0026042
        k(  150) = (   0.0312500   0.1383235   0.0000000), wk =   0.0026042
        k(  151) = (   0.0312500   0.1503516   0.0000000), wk =   0.0026042
        k(  152) = (   0.0312500   0.1623798   0.0000000), wk =   0.0026042
        k(  153) = (   0.0312500   0.1744079   0.0000000), wk =   0.0026042
        k(  154) = (   0.0312500   0.1864360   0.0000000), wk =   0.0026042
        k(  155) = (   0.0312500   0.1984642   0.0000000), wk =   0.0026042
        k(  156) = (   0.0312500   0.2104923   0.0000000), wk =   0.0026042
        k(  157) = (   0.0312500   0.2225204   0.0000000), wk =   0.0026042
        k(  158) = (   0.0312500   0.2345485   0.0000000), wk =   0.0026042
        k(  159) = (   0.0312500   0.2465767   0.0000000), wk =   0.0026042
        k(  160) = (   0.0312500   0.2586048   0.0000000), wk =   0.0026042
        k(  161) = (   0.0312500   0.2706329   0.0000000), wk =   0.0026042
        k(  162) = (   0.0312500   0.2826611   0.0000000), wk =   0.0026042
        k(  163) = (   0.0312500   0.2946892   0.0000000), wk =   0.0026042
        k(  164) = (   0.0312500   0.3067173   0.0000000), wk =   0.0026042
        k(  165) = (   0.0312500   0.3187455   0.0000000), wk =   0.0026042
        k(  166) = (   0.0312500   0.3307736   0.0000000), wk =   0.0026042
        k(  167) = (   0.0312500   0.3428017   0.0000000), wk =   0.0026042
        k(  168) = (   0.0312500   0.3548299   0.0000000), wk =   0.0026042
        k(  169) = (   0.0312500   0.3668580   0.0000000), wk =   0.0026042
        k(  170) = (   0.0312500   0.3788861   0.0000000), wk =   0.0026042
        k(  171) = (   0.0312500   0.3909142   0.0000000), wk =   0.0026042
        k(  172) = (   0.0312500   0.4029424   0.0000000), wk =   0.0026042
        k(  173) = (   0.0312500   0.4149705   0.0000000), wk =   0.0026042
        k(  174) = (   0.0312500   0.4269986   0.0000000), wk =   0.0026042
        k(  175) = (   0.0312500   0.4390268   0.0000000), wk =   0.0026042
        k(  176) = (   0.0312500   0.4510549   0.0000000), wk =   0.0026042
        k(  177) = (   0.0312500   0.4630830   0.0000000), wk =   0.0026042
        k(  178) = (   0.0312500   0.4751112   0.0000000), wk =   0.0026042
        k(  179) = (   0.0312500   0.4871393   0.0000000), wk =   0.0026042
        k(  180) = (   0.0312500   0.4991674   0.0000000), wk =   0.0026042
        k(  181) = (   0.0312500   0.5111956   0.0000000), wk =   0.0026042
        k(  182) = (   0.0312500   0.5232237   0.0000000), wk =   0.0026042
        k(  183) = (   0.0312500   0.5352518   0.0000000), wk =   0.0026042
        k(  184) = (   0.0312500   0.5472799   0.0000000), wk =   0.0026042
        k(  185) = (   0.0312500   0.5593081   0.0000000), wk =   0.0026042
        k(  186) = (   0.0312500   0.5713362   0.0000000), wk =   0.0026042
        k(  187) = (   0.0416667   0.0721688   0.0000000), wk =   0.0013021
        k(  188) = (   0.0416667   0.0841969   0.0000000), wk =   0.0026042
        k(  189) = (   0.0416667   0.0962250   0.0000000), wk =   0.0026042
        k(  190) = (   0.0416667   0.1082532   0.0000000), wk =   0.0026042
        k(  191) = (   0.0416667   0.1202813   0.0000000), wk =   0.0026042
        k(  192) = (   0.0416667   0.1323094   0.0000000), wk =   0.0026042
        k(  193) = (   0.0416667   0.1443376   0.0000000), wk =   0.0026042
        k(  194) = (   0.0416667   0.1563657   0.0000000), wk =   0.0026042
        k(  195) = (   0.0416667   0.1683938   0.0000000), wk =   0.0026042
        k(  196) = (   0.0416667   0.1804220   0.0000000), wk =   0.0026042
        k(  197) = (   0.0416667   0.1924501   0.0000000), wk =   0.0026042
        k(  198) = (   0.0416667   0.2044782   0.0000000), wk =   0.0026042
        k(  199) = (   0.0416667   0.2165064   0.0000000), wk =   0.0026042
        k(  200) = (   0.0416667   0.2285345   0.0000000), wk =   0.0026042
        k(  201) = (   0.0416667   0.2405626   0.0000000), wk =   0.0026042
        k(  202) = (   0.0416667   0.2525907   0.0000000), wk =   0.0026042
        k(  203) = (   0.0416667   0.2646189   0.0000000), wk =   0.0026042
        k(  204) = (   0.0416667   0.2766470   0.0000000), wk =   0.0026042
        k(  205) = (   0.0416667   0.2886751   0.0000000), wk =   0.0026042
        k(  206) = (   0.0416667   0.3007033   0.0000000), wk =   0.0026042
        k(  207) = (   0.0416667   0.3127314   0.0000000), wk =   0.0026042
        k(  208) = (   0.0416667   0.3247595   0.0000000), wk =   0.0026042
        k(  209) = (   0.0416667   0.3367877   0.0000000), wk =   0.0026042
        k(  210) = (   0.0416667   0.3488158   0.0000000), wk =   0.0026042
        k(  211) = (   0.0416667   0.3608439   0.0000000), wk =   0.0026042
        k(  212) = (   0.0416667   0.3728720   0.0000000), wk =   0.0026042
        k(  213) = (   0.0416667   0.3849002   0.0000000), wk =   0.0026042
        k(  214) = (   0.0416667   0.3969283   0.0000000), wk =   0.0026042
        k(  215) = (   0.0416667   0.4089564   0.0000000), wk =   0.0026042
        k(  216) = (   0.0416667   0.4209846   0.0000000), wk =   0.0026042
        k(  217) = (   0.0416667   0.4330127   0.0000000), wk =   0.0026042
        k(  218) = (   0.0416667   0.4450408   0.0000000), wk =   0.0026042
        k(  219) = (   0.0416667   0.4570690   0.0000000), wk =   0.0026042
        k(  220) = (   0.0416667   0.4690971   0.0000000), wk =   0.0026042
        k(  221) = (   0.0416667   0.4811252   0.0000000), wk =   0.0026042
        k(  222) = (   0.0416667   0.4931534   0.0000000), wk =   0.0026042
        k(  223) = (   0.0416667   0.5051815   0.0000000), wk =   0.0026042
        k(  224) = (   0.0416667   0.5172096   0.0000000), wk =   0.0026042
        k(  225) = (   0.0416667   0.5292377   0.0000000), wk =   0.0026042
        k(  226) = (   0.0416667   0.5412659   0.0000000), wk =   0.0026042
        k(  227) = (   0.0416667   0.5532940   0.0000000), wk =   0.0026042
        k(  228) = (   0.0416667   0.5653221   0.0000000), wk =   0.0026042
        k(  229) = (   0.0416667   0.5773503   0.0000000), wk =   0.0013021
        k(  230) = (   0.0520833   0.0902110   0.0000000), wk =   0.0013021
        k(  231) = (   0.0520833   0.1022391   0.0000000), wk =   0.0026042
        k(  232) = (   0.0520833   0.1142672   0.0000000), wk =   0.0026042
        k(  233) = (   0.0520833   0.1262954   0.0000000), wk =   0.0026042
        k(  234) = (   0.0520833   0.1383235   0.0000000), wk =   0.0026042
        k(  235) = (   0.0520833   0.1503516   0.0000000), wk =   0.0026042
        k(  236) = (   0.0520833   0.1623798   0.0000000), wk =   0.0026042
        k(  237) = (   0.0520833   0.1744079   0.0000000), wk =   0.0026042
        k(  238) = (   0.0520833   0.1864360   0.0000000), wk =   0.0026042
        k(  239) = (   0.0520833   0.1984642   0.0000000), wk =   0.0026042
        k(  240) = (   0.0520833   0.2104923   0.0000000), wk =   0.0026042
        k(  241) = (   0.0520833   0.2225204   0.0000000), wk =   0.0026042
        k(  242) = (   0.0520833   0.2345485   0.0000000), wk =   0.0026042
        k(  243) = (   0.0520833   0.2465767   0.0000000), wk =   0.0026042
        k(  244) = (   0.0520833   0.2586048   0.0000000), wk =   0.0026042
        k(  245) = (   0.0520833   0.2706329   0.0000000), wk =   0.0026042
        k(  246) = (   0.0520833   0.2826611   0.0000000), wk =   0.0026042
        k(  247) = (   0.0520833   0.2946892   0.0000000), wk =   0.0026042
        k(  248) = (   0.0520833   0.3067173   0.0000000), wk =   0.0026042
        k(  249) = (   0.0520833   0.3187455   0.0000000), wk =   0.0026042
        k(  250) = (   0.0520833   0.3307736   0.0000000), wk =   0.0026042
        k(  251) = (   0.0520833   0.3428017   0.0000000), wk =   0.0026042
        k(  252) = (   0.0520833   0.3548299   0.0000000), wk =   0.0026042
        k(  253) = (   0.0520833   0.3668580   0.0000000), wk =   0.0026042
        k(  254) = (   0.0520833   0.3788861   0.0000000), wk =   0.0026042
        k(  255) = (   0.0520833   0.3909142   0.0000000), wk =   0.0026042
        k(  256) = (   0.0520833   0.4029424   0.0000000), wk =   0.0026042
        k(  257) = (   0.0520833   0.4149705   0.0000000), wk =   0.0026042
        k(  258) = (   0.0520833   0.4269986   0.0000000), wk =   0.0026042
        k(  259) = (   0.0520833   0.4390268   0.0000000), wk =   0.0026042
        k(  260) = (   0.0520833   0.4510549   0.0000000), wk =   0.0026042
        k(  261) = (   0.0520833   0.4630830   0.0000000), wk =   0.0026042
        k(  262) = (   0.0520833   0.4751112   0.0000000), wk =   0.0026042
        k(  263) = (   0.0520833   0.4871393   0.0000000), wk =   0.0026042
        k(  264) = (   0.0520833   0.4991674   0.0000000), wk =   0.0026042
        k(  265) = (   0.0520833   0.5111956   0.0000000), wk =   0.0026042
        k(  266) = (   0.0520833   0.5232237   0.0000000), wk =   0.0026042
        k(  267) = (   0.0520833   0.5352518   0.0000000), wk =   0.0026042
        k(  268) = (   0.0520833   0.5472799   0.0000000), wk =   0.0026042
        k(  269) = (   0.0520833   0.5593081   0.0000000), wk =   0.0026042
        k(  270) = (   0.0520833   0.5713362   0.0000000), wk =   0.0026042
        k(  271) = (   0.0625000   0.1082532   0.0000000), wk =   0.0013021
        k(  272) = (   0.0625000   0.1202813   0.0000000), wk =   0.0026042
        k(  273) = (   0.0625000   0.1323094   0.0000000), wk =   0.0026042
        k(  274) = (   0.0625000   0.1443376   0.0000000), wk =   0.0026042
        k(  275) = (   0.0625000   0.1563657   0.0000000), wk =   0.0026042
        k(  276) = (   0.0625000   0.1683938   0.0000000), wk =   0.0026042
        k(  277) = (   0.0625000   0.1804220   0.0000000), wk =   0.0026042
        k(  278) = (   0.0625000   0.1924501   0.0000000), wk =   0.0026042
        k(  279) = (   0.0625000   0.2044782   0.0000000), wk =   0.0026042
        k(  280) = (   0.0625000   0.2165064   0.0000000), wk =   0.0026042
        k(  281) = (   0.0625000   0.2285345   0.0000000), wk =   0.0026042
        k(  282) = (   0.0625000   0.2405626   0.0000000), wk =   0.0026042
        k(  283) = (   0.0625000   0.2525907   0.0000000), wk =   0.0026042
        k(  284) = (   0.0625000   0.2646189   0.0000000), wk =   0.0026042
        k(  285) = (   0.0625000   0.2766470   0.0000000), wk =   0.0026042
        k(  286) = (   0.0625000   0.2886751   0.0000000), wk =   0.0026042
        k(  287) = (   0.0625000   0.3007033   0.0000000), wk =   0.0026042
        k(  288) = (   0.0625000   0.3127314   0.0000000), wk =   0.0026042
        k(  289) = (   0.0625000   0.3247595   0.0000000), wk =   0.0026042
        k(  290) = (   0.0625000   0.3367877   0.0000000), wk =   0.0026042
        k(  291) = (   0.0625000   0.3488158   0.0000000), wk =   0.0026042
        k(  292) = (   0.0625000   0.3608439   0.0000000), wk =   0.0026042
        k(  293) = (   0.0625000   0.3728720   0.0000000), wk =   0.0026042
        k(  294) = (   0.0625000   0.3849002   0.0000000), wk =   0.0026042
        k(  295) = (   0.0625000   0.3969283   0.0000000), wk =   0.0026042
        k(  296) = (   0.0625000   0.4089564   0.0000000), wk =   0.0026042
        k(  297) = (   0.0625000   0.4209846   0.0000000), wk =   0.0026042
        k(  298) = (   0.0625000   0.4330127   0.0000000), wk =   0.0026042
        k(  299) = (   0.0625000   0.4450408   0.0000000), wk =   0.0026042
        k(  300) = (   0.0625000   0.4570690   0.0000000), wk =   0.0026042
        k(  301) = (   0.0625000   0.4690971   0.0000000), wk =   0.0026042
        k(  302) = (   0.0625000   0.4811252   0.0000000), wk =   0.0026042
        k(  303) = (   0.0625000   0.4931534   0.0000000), wk =   0.0026042
        k(  304) = (   0.0625000   0.5051815   0.0000000), wk =   0.0026042
        k(  305) = (   0.0625000   0.5172096   0.0000000), wk =   0.0026042
        k(  306) = (   0.0625000   0.5292377   0.0000000), wk =   0.0026042
        k(  307) = (   0.0625000   0.5412659   0.0000000), wk =   0.0026042
        k(  308) = (   0.0625000   0.5532940   0.0000000), wk =   0.0026042
        k(  309) = (   0.0625000   0.5653221   0.0000000), wk =   0.0026042
        k(  310) = (   0.0625000   0.5773503   0.0000000), wk =   0.0013021
        k(  311) = (   0.0729167   0.1262954   0.0000000), wk =   0.0013021
        k(  312) = (   0.0729167   0.1383235   0.0000000), wk =   0.0026042
        k(  313) = (   0.0729167   0.1503516   0.0000000), wk =   0.0026042
        k(  314) = (   0.0729167   0.1623798   0.0000000), wk =   0.0026042
        k(  315) = (   0.0729167   0.1744079   0.0000000), wk =   0.0026042
        k(  316) = (   0.0729167   0.1864360   0.0000000), wk =   0.0026042
        k(  317) = (   0.0729167   0.1984642   0.0000000), wk =   0.0026042
        k(  318) = (   0.0729167   0.2104923   0.0000000), wk =   0.0026042
        k(  319) = (   0.0729167   0.2225204   0.0000000), wk =   0.0026042
        k(  320) = (   0.0729167   0.2345485   0.0000000), wk =   0.0026042
        k(  321) = (   0.0729167   0.2465767   0.0000000), wk =   0.0026042
        k(  322) = (   0.0729167   0.2586048   0.0000000), wk =   0.0026042
        k(  323) = (   0.0729167   0.2706329   0.0000000), wk =   0.0026042
        k(  324) = (   0.0729167   0.2826611   0.0000000), wk =   0.0026042
        k(  325) = (   0.0729167   0.2946892   0.0000000), wk =   0.0026042
        k(  326) = (   0.0729167   0.3067173   0.0000000), wk =   0.0026042
        k(  327) = (   0.0729167   0.3187455   0.0000000), wk =   0.0026042
        k(  328) = (   0.0729167   0.3307736   0.0000000), wk =   0.0026042
        k(  329) = (   0.0729167   0.3428017   0.0000000), wk =   0.0026042
        k(  330) = (   0.0729167   0.3548299   0.0000000), wk =   0.0026042
        k(  331) = (   0.0729167   0.3668580   0.0000000), wk =   0.0026042
        k(  332) = (   0.0729167   0.3788861   0.0000000), wk =   0.0026042
        k(  333) = (   0.0729167   0.3909142   0.0000000), wk =   0.0026042
        k(  334) = (   0.0729167   0.4029424   0.0000000), wk =   0.0026042
        k(  335) = (   0.0729167   0.4149705   0.0000000), wk =   0.0026042
        k(  336) = (   0.0729167   0.4269986   0.0000000), wk =   0.0026042
        k(  337) = (   0.0729167   0.4390268   0.0000000), wk =   0.0026042
        k(  338) = (   0.0729167   0.4510549   0.0000000), wk =   0.0026042
        k(  339) = (   0.0729167   0.4630830   0.0000000), wk =   0.0026042
        k(  340) = (   0.0729167   0.4751112   0.0000000), wk =   0.0026042
        k(  341) = (   0.0729167   0.4871393   0.0000000), wk =   0.0026042
        k(  342) = (   0.0729167   0.4991674   0.0000000), wk =   0.0026042
        k(  343) = (   0.0729167   0.5111956   0.0000000), wk =   0.0026042
        k(  344) = (   0.0729167   0.5232237   0.0000000), wk =   0.0026042
        k(  345) = (   0.0729167   0.5352518   0.0000000), wk =   0.0026042
        k(  346) = (   0.0729167   0.5472799   0.0000000), wk =   0.0026042
        k(  347) = (   0.0729167   0.5593081   0.0000000), wk =   0.0026042
        k(  348) = (   0.0729167   0.5713362   0.0000000), wk =   0.0026042
        k(  349) = (   0.0833333   0.1443376   0.0000000), wk =   0.0013021
        k(  350) = (   0.0833333   0.1563657   0.0000000), wk =   0.0026042
        k(  351) = (   0.0833333   0.1683938   0.0000000), wk =   0.0026042
        k(  352) = (   0.0833333   0.1804220   0.0000000), wk =   0.0026042
        k(  353) = (   0.0833333   0.1924501   0.0000000), wk =   0.0026042
        k(  354) = (   0.0833333   0.2044782   0.0000000), wk =   0.0026042
        k(  355) = (   0.0833333   0.2165064   0.0000000), wk =   0.0026042
        k(  356) = (   0.0833333   0.2285345   0.0000000), wk =   0.0026042
        k(  357) = (   0.0833333   0.2405626   0.0000000), wk =   0.0026042
        k(  358) = (   0.0833333   0.2525907   0.0000000), wk =   0.0026042
        k(  359) = (   0.0833333   0.2646189   0.0000000), wk =   0.0026042
        k(  360) = (   0.0833333   0.2766470   0.0000000), wk =   0.0026042
        k(  361) = (   0.0833333   0.2886751   0.0000000), wk =   0.0026042
        k(  362) = (   0.0833333   0.3007033   0.0000000), wk =   0.0026042
        k(  363) = (   0.0833333   0.3127314   0.0000000), wk =   0.0026042
        k(  364) = (   0.0833333   0.3247595   0.0000000), wk =   0.0026042
        k(  365) = (   0.0833333   0.3367877   0.0000000), wk =   0.0026042
        k(  366) = (   0.0833333   0.3488158   0.0000000), wk =   0.0026042
        k(  367) = (   0.0833333   0.3608439   0.0000000), wk =   0.0026042
        k(  368) = (   0.0833333   0.3728720   0.0000000), wk =   0.0026042
        k(  369) = (   0.0833333   0.3849002   0.0000000), wk =   0.0026042
        k(  370) = (   0.0833333   0.3969283   0.0000000), wk =   0.0026042
        k(  371) = (   0.0833333   0.4089564   0.0000000), wk =   0.0026042
        k(  372) = (   0.0833333   0.4209846   0.0000000), wk =   0.0026042
        k(  373) = (   0.0833333   0.4330127   0.0000000), wk =   0.0026042
        k(  374) = (   0.0833333   0.4450408   0.0000000), wk =   0.0026042
        k(  375) = (   0.0833333   0.4570690   0.0000000), wk =   0.0026042
        k(  376) = (   0.0833333   0.4690971   0.0000000), wk =   0.0026042
        k(  377) = (   0.0833333   0.4811252   0.0000000), wk =   0.0026042
        k(  378) = (   0.0833333   0.4931534   0.0000000), wk =   0.0026042
        k(  379) = (   0.0833333   0.5051815   0.0000000), wk =   0.0026042
        k(  380) = (   0.0833333   0.5172096   0.0000000), wk =   0.0026042
        k(  381) = (   0.0833333   0.5292377   0.0000000), wk =   0.0026042
        k(  382) = (   0.0833333   0.5412659   0.0000000), wk =   0.0026042
        k(  383) = (   0.0833333   0.5532940   0.0000000), wk =   0.0026042
        k(  384) = (   0.0833333   0.5653221   0.0000000), wk =   0.0026042
        k(  385) = (   0.0833333   0.5773503   0.0000000), wk =   0.0013021
        k(  386) = (   0.0937500   0.1623798   0.0000000), wk =   0.0013021
        k(  387) = (   0.0937500   0.1744079   0.0000000), wk =   0.0026042
        k(  388) = (   0.0937500   0.1864360   0.0000000), wk =   0.0026042
        k(  389) = (   0.0937500   0.1984642   0.0000000), wk =   0.0026042
        k(  390) = (   0.0937500   0.2104923   0.0000000), wk =   0.0026042
        k(  391) = (   0.0937500   0.2225204   0.0000000), wk =   0.0026042
        k(  392) = (   0.0937500   0.2345485   0.0000000), wk =   0.0026042
        k(  393) = (   0.0937500   0.2465767   0.0000000), wk =   0.0026042
        k(  394) = (   0.0937500   0.2586048   0.0000000), wk =   0.0026042
        k(  395) = (   0.0937500   0.2706329   0.0000000), wk =   0.0026042
        k(  396) = (   0.0937500   0.2826611   0.0000000), wk =   0.0026042
        k(  397) = (   0.0937500   0.2946892   0.0000000), wk =   0.0026042
        k(  398) = (   0.0937500   0.3067173   0.0000000), wk =   0.0026042
        k(  399) = (   0.0937500   0.3187455   0.0000000), wk =   0.0026042
        k(  400) = (   0.0937500   0.3307736   0.0000000), wk =   0.0026042
        k(  401) = (   0.0937500   0.3428017   0.0000000), wk =   0.0026042
        k(  402) = (   0.0937500   0.3548299   0.0000000), wk =   0.0026042
        k(  403) = (   0.0937500   0.3668580   0.0000000), wk =   0.0026042
        k(  404) = (   0.0937500   0.3788861   0.0000000), wk =   0.0026042
        k(  405) = (   0.0937500   0.3909142   0.0000000), wk =   0.0026042
        k(  406) = (   0.0937500   0.4029424   0.0000000), wk =   0.0026042
        k(  407) = (   0.0937500   0.4149705   0.0000000), wk =   0.0026042
        k(  408) = (   0.0937500   0.4269986   0.0000000), wk =   0.0026042
        k(  409) = (   0.0937500   0.4390268   0.0000000), wk =   0.0026042
        k(  410) = (   0.0937500   0.4510549   0.0000000), wk =   0.0026042
        k(  411) = (   0.0937500   0.4630830   0.0000000), wk =   0.0026042
        k(  412) = (   0.0937500   0.4751112   0.0000000), wk =   0.0026042
        k(  413) = (   0.0937500   0.4871393   0.0000000), wk =   0.0026042
        k(  414) = (   0.0937500   0.4991674   0.0000000), wk =   0.0026042
        k(  415) = (   0.0937500   0.5111956   0.0000000), wk =   0.0026042
        k(  416) = (   0.0937500   0.5232237   0.0000000), wk =   0.0026042
        k(  417) = (   0.0937500   0.5352518   0.0000000), wk =   0.0026042
        k(  418) = (   0.0937500   0.5472799   0.0000000), wk =   0.0026042
        k(  419) = (   0.0937500   0.5593081   0.0000000), wk =   0.0026042
        k(  420) = (   0.0937500   0.5713362   0.0000000), wk =   0.0026042
        k(  421) = (   0.1041667   0.1804220   0.0000000), wk =   0.0013021
        k(  422) = (   0.1041667   0.1924501   0.0000000), wk =   0.0026042
        k(  423) = (   0.1041667   0.2044782   0.0000000), wk =   0.0026042
        k(  424) = (   0.1041667   0.2165064   0.0000000), wk =   0.0026042
        k(  425) = (   0.1041667   0.2285345   0.0000000), wk =   0.0026042
        k(  426) = (   0.1041667   0.2405626   0.0000000), wk =   0.0026042
        k(  427) = (   0.1041667   0.2525907   0.0000000), wk =   0.0026042
        k(  428) = (   0.1041667   0.2646189   0.0000000), wk =   0.0026042
        k(  429) = (   0.1041667   0.2766470   0.0000000), wk =   0.0026042
        k(  430) = (   0.1041667   0.2886751   0.0000000), wk =   0.0026042
        k(  431) = (   0.1041667   0.3007033   0.0000000), wk =   0.0026042
        k(  432) = (   0.1041667   0.3127314   0.0000000), wk =   0.0026042
        k(  433) = (   0.1041667   0.3247595   0.0000000), wk =   0.0026042
        k(  434) = (   0.1041667   0.3367877   0.0000000), wk =   0.0026042
        k(  435) = (   0.1041667   0.3488158   0.0000000), wk =   0.0026042
        k(  436) = (   0.1041667   0.3608439   0.0000000), wk =   0.0026042
        k(  437) = (   0.1041667   0.3728720   0.0000000), wk =   0.0026042
        k(  438) = (   0.1041667   0.3849002   0.0000000), wk =   0.0026042
        k(  439) = (   0.1041667   0.3969283   0.0000000), wk =   0.0026042
        k(  440) = (   0.1041667   0.4089564   0.0000000), wk =   0.0026042
        k(  441) = (   0.1041667   0.4209846   0.0000000), wk =   0.0026042
        k(  442) = (   0.1041667   0.4330127   0.0000000), wk =   0.0026042
        k(  443) = (   0.1041667   0.4450408   0.0000000), wk =   0.0026042
        k(  444) = (   0.1041667   0.4570690   0.0000000), wk =   0.0026042
        k(  445) = (   0.1041667   0.4690971   0.0000000), wk =   0.0026042
        k(  446) = (   0.1041667   0.4811252   0.0000000), wk =   0.0026042
        k(  447) = (   0.1041667   0.4931534   0.0000000), wk =   0.0026042
        k(  448) = (   0.1041667   0.5051815   0.0000000), wk =   0.0026042
        k(  449) = (   0.1041667   0.5172096   0.0000000), wk =   0.0026042
        k(  450) = (   0.1041667   0.5292377   0.0000000), wk =   0.0026042
        k(  451) = (   0.1041667   0.5412659   0.0000000), wk =   0.0026042
        k(  452) = (   0.1041667   0.5532940   0.0000000), wk =   0.0026042
        k(  453) = (   0.1041667   0.5653221   0.0000000), wk =   0.0026042
        k(  454) = (   0.1041667   0.5773503   0.0000000), wk =   0.0013021
        k(  455) = (   0.1145833   0.1984642   0.0000000), wk =   0.0013021
        k(  456) = (   0.1145833   0.2104923   0.0000000), wk =   0.0026042
        k(  457) = (   0.1145833   0.2225204   0.0000000), wk =   0.0026042
        k(  458) = (   0.1145833   0.2345485   0.0000000), wk =   0.0026042
        k(  459) = (   0.1145833   0.2465767   0.0000000), wk =   0.0026042
        k(  460) = (   0.1145833   0.2586048   0.0000000), wk =   0.0026042
        k(  461) = (   0.1145833   0.2706329   0.0000000), wk =   0.0026042
        k(  462) = (   0.1145833   0.2826611   0.0000000), wk =   0.0026042
        k(  463) = (   0.1145833   0.2946892   0.0000000), wk =   0.0026042
        k(  464) = (   0.1145833   0.3067173   0.0000000), wk =   0.0026042
        k(  465) = (   0.1145833   0.3187455   0.0000000), wk =   0.0026042
        k(  466) = (   0.1145833   0.3307736   0.0000000), wk =   0.0026042
        k(  467) = (   0.1145833   0.3428017   0.0000000), wk =   0.0026042
        k(  468) = (   0.1145833   0.3548299   0.0000000), wk =   0.0026042
        k(  469) = (   0.1145833   0.3668580   0.0000000), wk =   0.0026042
        k(  470) = (   0.1145833   0.3788861   0.0000000), wk =   0.0026042
        k(  471) = (   0.1145833   0.3909142   0.0000000), wk =   0.0026042
        k(  472) = (   0.1145833   0.4029424   0.0000000), wk =   0.0026042
        k(  473) = (   0.1145833   0.4149705   0.0000000), wk =   0.0026042
        k(  474) = (   0.1145833   0.4269986   0.0000000), wk =   0.0026042
        k(  475) = (   0.1145833   0.4390268   0.0000000), wk =   0.0026042
        k(  476) = (   0.1145833   0.4510549   0.0000000), wk =   0.0026042
        k(  477) = (   0.1145833   0.4630830   0.0000000), wk =   0.0026042
        k(  478) = (   0.1145833   0.4751112   0.0000000), wk =   0.0026042
        k(  479) = (   0.1145833   0.4871393   0.0000000), wk =   0.0026042
        k(  480) = (   0.1145833   0.4991674   0.0000000), wk =   0.0026042
        k(  481) = (   0.1145833   0.5111956   0.0000000), wk =   0.0026042
        k(  482) = (   0.1145833   0.5232237   0.0000000), wk =   0.0026042
        k(  483) = (   0.1145833   0.5352518   0.0000000), wk =   0.0026042
        k(  484) = (   0.1145833   0.5472799   0.0000000), wk =   0.0026042
        k(  485) = (   0.1145833   0.5593081   0.0000000), wk =   0.0026042
        k(  486) = (   0.1145833   0.5713362   0.0000000), wk =   0.0026042
        k(  487) = (   0.1250000   0.2165064   0.0000000), wk =   0.0013021
        k(  488) = (   0.1250000   0.2285345   0.0000000), wk =   0.0026042
        k(  489) = (   0.1250000   0.2405626   0.0000000), wk =   0.0026042
        k(  490) = (   0.1250000   0.2525907   0.0000000), wk =   0.0026042
        k(  491) = (   0.1250000   0.2646189   0.0000000), wk =   0.0026042
        k(  492) = (   0.1250000   0.2766470   0.0000000), wk =   0.0026042
        k(  493) = (   0.1250000   0.2886751   0.0000000), wk =   0.0026042
        k(  494) = (   0.1250000   0.3007033   0.0000000), wk =   0.0026042
        k(  495) = (   0.1250000   0.3127314   0.0000000), wk =   0.0026042
        k(  496) = (   0.1250000   0.3247595   0.0000000), wk =   0.0026042
        k(  497) = (   0.1250000   0.3367877   0.0000000), wk =   0.0026042
        k(  498) = (   0.1250000   0.3488158   0.0000000), wk =   0.0026042
        k(  499) = (   0.1250000   0.3608439   0.0000000), wk =   0.0026042
        k(  500) = (   0.1250000   0.3728720   0.0000000), wk =   0.0026042
        k(  501) = (   0.1250000   0.3849002   0.0000000), wk =   0.0026042
        k(  502) = (   0.1250000   0.3969283   0.0000000), wk =   0.0026042
        k(  503) = (   0.1250000   0.4089564   0.0000000), wk =   0.0026042
        k(  504) = (   0.1250000   0.4209846   0.0000000), wk =   0.0026042
        k(  505) = (   0.1250000   0.4330127   0.0000000), wk =   0.0026042
        k(  506) = (   0.1250000   0.4450408   0.0000000), wk =   0.0026042
        k(  507) = (   0.1250000   0.4570690   0.0000000), wk =   0.0026042
        k(  508) = (   0.1250000   0.4690971   0.0000000), wk =   0.0026042
        k(  509) = (   0.1250000   0.4811252   0.0000000), wk =   0.0026042
        k(  510) = (   0.1250000   0.4931534   0.0000000), wk =   0.0026042
        k(  511) = (   0.1250000   0.5051815   0.0000000), wk =   0.0026042
        k(  512) = (   0.1250000   0.5172096   0.0000000), wk =   0.0026042
        k(  513) = (   0.1250000   0.5292377   0.0000000), wk =   0.0026042
        k(  514) = (   0.1250000   0.5412659   0.0000000), wk =   0.0026042
        k(  515) = (   0.1250000   0.5532940   0.0000000), wk =   0.0026042
        k(  516) = (   0.1250000   0.5653221   0.0000000), wk =   0.0026042
        k(  517) = (   0.1250000   0.5773503   0.0000000), wk =   0.0013021
        k(  518) = (   0.1354167   0.2345485   0.0000000), wk =   0.0013021
        k(  519) = (   0.1354167   0.2465767   0.0000000), wk =   0.0026042
        k(  520) = (   0.1354167   0.2586048   0.0000000), wk =   0.0026042
        k(  521) = (   0.1354167   0.2706329   0.0000000), wk =   0.0026042
        k(  522) = (   0.1354167   0.2826611   0.0000000), wk =   0.0026042
        k(  523) = (   0.1354167   0.2946892   0.0000000), wk =   0.0026042
        k(  524) = (   0.1354167   0.3067173   0.0000000), wk =   0.0026042
        k(  525) = (   0.1354167   0.3187455   0.0000000), wk =   0.0026042
        k(  526) = (   0.1354167   0.3307736   0.0000000), wk =   0.0026042
        k(  527) = (   0.1354167   0.3428017   0.0000000), wk =   0.0026042
        k(  528) = (   0.1354167   0.3548299   0.0000000), wk =   0.0026042
        k(  529) = (   0.1354167   0.3668580   0.0000000), wk =   0.0026042
        k(  530) = (   0.1354167   0.3788861   0.0000000), wk =   0.0026042
        k(  531) = (   0.1354167   0.3909142   0.0000000), wk =   0.0026042
        k(  532) = (   0.1354167   0.4029424   0.0000000), wk =   0.0026042
        k(  533) = (   0.1354167   0.4149705   0.0000000), wk =   0.0026042
        k(  534) = (   0.1354167   0.4269986   0.0000000), wk =   0.0026042
        k(  535) = (   0.1354167   0.4390268   0.0000000), wk =   0.0026042
        k(  536) = (   0.1354167   0.4510549   0.0000000), wk =   0.0026042
        k(  537) = (   0.1354167   0.4630830   0.0000000), wk =   0.0026042
        k(  538) = (   0.1354167   0.4751112   0.0000000), wk =   0.0026042
        k(  539) = (   0.1354167   0.4871393   0.0000000), wk =   0.0026042
        k(  540) = (   0.1354167   0.4991674   0.0000000), wk =   0.0026042
        k(  541) = (   0.1354167   0.5111956   0.0000000), wk =   0.0026042
        k(  542) = (   0.1354167   0.5232237   0.0000000), wk =   0.0026042
        k(  543) = (   0.1354167   0.5352518   0.0000000), wk =   0.0026042
        k(  544) = (   0.1354167   0.5472799   0.0000000), wk =   0.0026042
        k(  545) = (   0.1354167   0.5593081   0.0000000), wk =   0.0026042
        k(  546) = (   0.1354167   0.5713362   0.0000000), wk =   0.0026042
        k(  547) = (   0.1458333   0.2525907   0.0000000), wk =   0.0013021
        k(  548) = (   0.1458333   0.2646189   0.0000000), wk =   0.0026042
        k(  549) = (   0.1458333   0.2766470   0.0000000), wk =   0.0026042
        k(  550) = (   0.1458333   0.2886751   0.0000000), wk =   0.0026042
        k(  551) = (   0.1458333   0.3007033   0.0000000), wk =   0.0026042
        k(  552) = (   0.1458333   0.3127314   0.0000000), wk =   0.0026042
        k(  553) = (   0.1458333   0.3247595   0.0000000), wk =   0.0026042
        k(  554) = (   0.1458333   0.3367877   0.0000000), wk =   0.0026042
        k(  555) = (   0.1458333   0.3488158   0.0000000), wk =   0.0026042
        k(  556) = (   0.1458333   0.3608439   0.0000000), wk =   0.0026042
        k(  557) = (   0.1458333   0.3728720   0.0000000), wk =   0.0026042
        k(  558) = (   0.1458333   0.3849002   0.0000000), wk =   0.0026042
        k(  559) = (   0.1458333   0.3969283   0.0000000), wk =   0.0026042
        k(  560) = (   0.1458333   0.4089564   0.0000000), wk =   0.0026042
        k(  561) = (   0.1458333   0.4209846   0.0000000), wk =   0.0026042
        k(  562) = (   0.1458333   0.4330127   0.0000000), wk =   0.0026042
        k(  563) = (   0.1458333   0.4450408   0.0000000), wk =   0.0026042
        k(  564) = (   0.1458333   0.4570690   0.0000000), wk =   0.0026042
        k(  565) = (   0.1458333   0.4690971   0.0000000), wk =   0.0026042
        k(  566) = (   0.1458333   0.4811252   0.0000000), wk =   0.0026042
        k(  567) = (   0.1458333   0.4931534   0.0000000), wk =   0.0026042
        k(  568) = (   0.1458333   0.5051815   0.0000000), wk =   0.0026042
        k(  569) = (   0.1458333   0.5172096   0.0000000), wk =   0.0026042
        k(  570) = (   0.1458333   0.5292377   0.0000000), wk =   0.0026042
        k(  571) = (   0.1458333   0.5412659   0.0000000), wk =   0.0026042
        k(  572) = (   0.1458333   0.5532940   0.0000000), wk =   0.0026042
        k(  573) = (   0.1458333   0.5653221   0.0000000), wk =   0.0026042
        k(  574) = (   0.1458333   0.5773503   0.0000000), wk =   0.0013021
        k(  575) = (   0.1562500   0.2706329   0.0000000), wk =   0.0013021
        k(  576) = (   0.1562500   0.2826611   0.0000000), wk =   0.0026042
        k(  577) = (   0.1562500   0.2946892   0.0000000), wk =   0.0026042
        k(  578) = (   0.1562500   0.3067173   0.0000000), wk =   0.0026042
        k(  579) = (   0.1562500   0.3187455   0.0000000), wk =   0.0026042
        k(  580) = (   0.1562500   0.3307736   0.0000000), wk =   0.0026042
        k(  581) = (   0.1562500   0.3428017   0.0000000), wk =   0.0026042
        k(  582) = (   0.1562500   0.3548299   0.0000000), wk =   0.0026042
        k(  583) = (   0.1562500   0.3668580   0.0000000), wk =   0.0026042
        k(  584) = (   0.1562500   0.3788861   0.0000000), wk =   0.0026042
        k(  585) = (   0.1562500   0.3909142   0.0000000), wk =   0.0026042
        k(  586) = (   0.1562500   0.4029424   0.0000000), wk =   0.0026042
        k(  587) = (   0.1562500   0.4149705   0.0000000), wk =   0.0026042
        k(  588) = (   0.1562500   0.4269986   0.0000000), wk =   0.0026042
        k(  589) = (   0.1562500   0.4390268   0.0000000), wk =   0.0026042
        k(  590) = (   0.1562500   0.4510549   0.0000000), wk =   0.0026042
        k(  591) = (   0.1562500   0.4630830   0.0000000), wk =   0.0026042
        k(  592) = (   0.1562500   0.4751112   0.0000000), wk =   0.0026042
        k(  593) = (   0.1562500   0.4871393   0.0000000), wk =   0.0026042
        k(  594) = (   0.1562500   0.4991674   0.0000000), wk =   0.0026042
        k(  595) = (   0.1562500   0.5111956   0.0000000), wk =   0.0026042
        k(  596) = (   0.1562500   0.5232237   0.0000000), wk =   0.0026042
        k(  597) = (   0.1562500   0.5352518   0.0000000), wk =   0.0026042
        k(  598) = (   0.1562500   0.5472799   0.0000000), wk =   0.0026042
        k(  599) = (   0.1562500   0.5593081   0.0000000), wk =   0.0026042
        k(  600) = (   0.1562500   0.5713362   0.0000000), wk =   0.0026042
        k(  601) = (   0.1666667   0.2886751   0.0000000), wk =   0.0013021
        k(  602) = (   0.1666667   0.3007033   0.0000000), wk =   0.0026042
        k(  603) = (   0.1666667   0.3127314   0.0000000), wk =   0.0026042
        k(  604) = (   0.1666667   0.3247595   0.0000000), wk =   0.0026042
        k(  605) = (   0.1666667   0.3367877   0.0000000), wk =   0.0026042
        k(  606) = (   0.1666667   0.3488158   0.0000000), wk =   0.0026042
        k(  607) = (   0.1666667   0.3608439   0.0000000), wk =   0.0026042
        k(  608) = (   0.1666667   0.3728720   0.0000000), wk =   0.0026042
        k(  609) = (   0.1666667   0.3849002   0.0000000), wk =   0.0026042
        k(  610) = (   0.1666667   0.3969283   0.0000000), wk =   0.0026042
        k(  611) = (   0.1666667   0.4089564   0.0000000), wk =   0.0026042
        k(  612) = (   0.1666667   0.4209846   0.0000000), wk =   0.0026042
        k(  613) = (   0.1666667   0.4330127   0.0000000), wk =   0.0026042
        k(  614) = (   0.1666667   0.4450408   0.0000000), wk =   0.0026042
        k(  615) = (   0.1666667   0.4570690   0.0000000), wk =   0.0026042
        k(  616) = (   0.1666667   0.4690971   0.0000000), wk =   0.0026042
        k(  617) = (   0.1666667   0.4811252   0.0000000), wk =   0.0026042
        k(  618) = (   0.1666667   0.4931534   0.0000000), wk =   0.0026042
        k(  619) = (   0.1666667   0.5051815   0.0000000), wk =   0.0026042
        k(  620) = (   0.1666667   0.5172096   0.0000000), wk =   0.0026042
        k(  621) = (   0.1666667   0.5292377   0.0000000), wk =   0.0026042
        k(  622) = (   0.1666667   0.5412659   0.0000000), wk =   0.0026042
        k(  623) = (   0.1666667   0.5532940   0.0000000), wk =   0.0026042
        k(  624) = (   0.1666667   0.5653221   0.0000000), wk =   0.0026042
        k(  625) = (   0.1666667   0.5773503   0.0000000), wk =   0.0013021
        k(  626) = (   0.1770833   0.3067173   0.0000000), wk =   0.0013021
        k(  627) = (   0.1770833   0.3187455   0.0000000), wk =   0.0026042
        k(  628) = (   0.1770833   0.3307736   0.0000000), wk =   0.0026042
        k(  629) = (   0.1770833   0.3428017   0.0000000), wk =   0.0026042
        k(  630) = (   0.1770833   0.3548299   0.0000000), wk =   0.0026042
        k(  631) = (   0.1770833   0.3668580   0.0000000), wk =   0.0026042
        k(  632) = (   0.1770833   0.3788861   0.0000000), wk =   0.0026042
        k(  633) = (   0.1770833   0.3909142   0.0000000), wk =   0.0026042
        k(  634) = (   0.1770833   0.4029424   0.0000000), wk =   0.0026042
        k(  635) = (   0.1770833   0.4149705   0.0000000), wk =   0.0026042
        k(  636) = (   0.1770833   0.4269986   0.0000000), wk =   0.0026042
        k(  637) = (   0.1770833   0.4390268   0.0000000), wk =   0.0026042
        k(  638) = (   0.1770833   0.4510549   0.0000000), wk =   0.0026042
        k(  639) = (   0.1770833   0.4630830   0.0000000), wk =   0.0026042
        k(  640) = (   0.1770833   0.4751112   0.0000000), wk =   0.0026042
        k(  641) = (   0.1770833   0.4871393   0.0000000), wk =   0.0026042
        k(  642) = (   0.1770833   0.4991674   0.0000000), wk =   0.0026042
        k(  643) = (   0.1770833   0.5111956   0.0000000), wk =   0.0026042
        k(  644) = (   0.1770833   0.5232237   0.0000000), wk =   0.0026042
        k(  645) = (   0.1770833   0.5352518   0.0000000), wk =   0.0026042
        k(  646) = (   0.1770833   0.5472799   0.0000000), wk =   0.0026042
        k(  647) = (   0.1770833   0.5593081   0.0000000), wk =   0.0026042
        k(  648) = (   0.1770833   0.5713362   0.0000000), wk =   0.0026042
        k(  649) = (   0.1875000   0.3247595   0.0000000), wk =   0.0013021
        k(  650) = (   0.1875000   0.3367877   0.0000000), wk =   0.0026042
        k(  651) = (   0.1875000   0.3488158   0.0000000), wk =   0.0026042
        k(  652) = (   0.1875000   0.3608439   0.0000000), wk =   0.0026042
        k(  653) = (   0.1875000   0.3728720   0.0000000), wk =   0.0026042
        k(  654) = (   0.1875000   0.3849002   0.0000000), wk =   0.0026042
        k(  655) = (   0.1875000   0.3969283   0.0000000), wk =   0.0026042
        k(  656) = (   0.1875000   0.4089564   0.0000000), wk =   0.0026042
        k(  657) = (   0.1875000   0.4209846   0.0000000), wk =   0.0026042
        k(  658) = (   0.1875000   0.4330127   0.0000000), wk =   0.0026042
        k(  659) = (   0.1875000   0.4450408   0.0000000), wk =   0.0026042
        k(  660) = (   0.1875000   0.4570690   0.0000000), wk =   0.0026042
        k(  661) = (   0.1875000   0.4690971   0.0000000), wk =   0.0026042
        k(  662) = (   0.1875000   0.4811252   0.0000000), wk =   0.0026042
        k(  663) = (   0.1875000   0.4931534   0.0000000), wk =   0.0026042
        k(  664) = (   0.1875000   0.5051815   0.0000000), wk =   0.0026042
        k(  665) = (   0.1875000   0.5172096   0.0000000), wk =   0.0026042
        k(  666) = (   0.1875000   0.5292377   0.0000000), wk =   0.0026042
        k(  667) = (   0.1875000   0.5412659   0.0000000), wk =   0.0026042
        k(  668) = (   0.1875000   0.5532940   0.0000000), wk =   0.0026042
        k(  669) = (   0.1875000   0.5653221   0.0000000), wk =   0.0026042
        k(  670) = (   0.1875000   0.5773503   0.0000000), wk =   0.0013021
        k(  671) = (   0.1979167   0.3428017   0.0000000), wk =   0.0013021
        k(  672) = (   0.1979167   0.3548299   0.0000000), wk =   0.0026042
        k(  673) = (   0.1979167   0.3668580   0.0000000), wk =   0.0026042
        k(  674) = (   0.1979167   0.3788861   0.0000000), wk =   0.0026042
        k(  675) = (   0.1979167   0.3909142   0.0000000), wk =   0.0026042
        k(  676) = (   0.1979167   0.4029424   0.0000000), wk =   0.0026042
        k(  677) = (   0.1979167   0.4149705   0.0000000), wk =   0.0026042
        k(  678) = (   0.1979167   0.4269986   0.0000000), wk =   0.0026042
        k(  679) = (   0.1979167   0.4390268   0.0000000), wk =   0.0026042
        k(  680) = (   0.1979167   0.4510549   0.0000000), wk =   0.0026042
        k(  681) = (   0.1979167   0.4630830   0.0000000), wk =   0.0026042
        k(  682) = (   0.1979167   0.4751112   0.0000000), wk =   0.0026042
        k(  683) = (   0.1979167   0.4871393   0.0000000), wk =   0.0026042
        k(  684) = (   0.1979167   0.4991674   0.0000000), wk =   0.0026042
        k(  685) = (   0.1979167   0.5111956   0.0000000), wk =   0.0026042
        k(  686) = (   0.1979167   0.5232237   0.0000000), wk =   0.0026042
        k(  687) = (   0.1979167   0.5352518   0.0000000), wk =   0.0026042
        k(  688) = (   0.1979167   0.5472799   0.0000000), wk =   0.0026042
        k(  689) = (   0.1979167   0.5593081   0.0000000), wk =   0.0026042
        k(  690) = (   0.1979167   0.5713362   0.0000000), wk =   0.0026042
        k(  691) = (   0.2083333   0.3608439   0.0000000), wk =   0.0013021
        k(  692) = (   0.2083333   0.3728720   0.0000000), wk =   0.0026042
        k(  693) = (   0.2083333   0.3849002   0.0000000), wk =   0.0026042
        k(  694) = (   0.2083333   0.3969283   0.0000000), wk =   0.0026042
        k(  695) = (   0.2083333   0.4089564   0.0000000), wk =   0.0026042
        k(  696) = (   0.2083333   0.4209846   0.0000000), wk =   0.0026042
        k(  697) = (   0.2083333   0.4330127   0.0000000), wk =   0.0026042
        k(  698) = (   0.2083333   0.4450408   0.0000000), wk =   0.0026042
        k(  699) = (   0.2083333   0.4570690   0.0000000), wk =   0.0026042
        k(  700) = (   0.2083333   0.4690971   0.0000000), wk =   0.0026042
        k(  701) = (   0.2083333   0.4811252   0.0000000), wk =   0.0026042
        k(  702) = (   0.2083333   0.4931534   0.0000000), wk =   0.0026042
        k(  703) = (   0.2083333   0.5051815   0.0000000), wk =   0.0026042
        k(  704) = (   0.2083333   0.5172096   0.0000000), wk =   0.0026042
        k(  705) = (   0.2083333   0.5292377   0.0000000), wk =   0.0026042
        k(  706) = (   0.2083333   0.5412659   0.0000000), wk =   0.0026042
        k(  707) = (   0.2083333   0.5532940   0.0000000), wk =   0.0026042
        k(  708) = (   0.2083333   0.5653221   0.0000000), wk =   0.0026042
        k(  709) = (   0.2083333   0.5773503   0.0000000), wk =   0.0013021
        k(  710) = (   0.2187500   0.3788861   0.0000000), wk =   0.0013021
        k(  711) = (   0.2187500   0.3909142   0.0000000), wk =   0.0026042
        k(  712) = (   0.2187500   0.4029424   0.0000000), wk =   0.0026042
        k(  713) = (   0.2187500   0.4149705   0.0000000), wk =   0.0026042
        k(  714) = (   0.2187500   0.4269986   0.0000000), wk =   0.0026042
        k(  715) = (   0.2187500   0.4390268   0.0000000), wk =   0.0026042
        k(  716) = (   0.2187500   0.4510549   0.0000000), wk =   0.0026042
        k(  717) = (   0.2187500   0.4630830   0.0000000), wk =   0.0026042
        k(  718) = (   0.2187500   0.4751112   0.0000000), wk =   0.0026042
        k(  719) = (   0.2187500   0.4871393   0.0000000), wk =   0.0026042
        k(  720) = (   0.2187500   0.4991674   0.0000000), wk =   0.0026042
        k(  721) = (   0.2187500   0.5111956   0.0000000), wk =   0.0026042
        k(  722) = (   0.2187500   0.5232237   0.0000000), wk =   0.0026042
        k(  723) = (   0.2187500   0.5352518   0.0000000), wk =   0.0026042
        k(  724) = (   0.2187500   0.5472799   0.0000000), wk =   0.0026042
        k(  725) = (   0.2187500   0.5593081   0.0000000), wk =   0.0026042
        k(  726) = (   0.2187500   0.5713362   0.0000000), wk =   0.0026042
        k(  727) = (   0.2291667   0.3969283   0.0000000), wk =   0.0013021
        k(  728) = (   0.2291667   0.4089564   0.0000000), wk =   0.0026042
        k(  729) = (   0.2291667   0.4209846   0.0000000), wk =   0.0026042
        k(  730) = (   0.2291667   0.4330127   0.0000000), wk =   0.0026042
        k(  731) = (   0.2291667   0.4450408   0.0000000), wk =   0.0026042
        k(  732) = (   0.2291667   0.4570690   0.0000000), wk =   0.0026042
        k(  733) = (   0.2291667   0.4690971   0.0000000), wk =   0.0026042
        k(  734) = (   0.2291667   0.4811252   0.0000000), wk =   0.0026042
        k(  735) = (   0.2291667   0.4931534   0.0000000), wk =   0.0026042
        k(  736) = (   0.2291667   0.5051815   0.0000000), wk =   0.0026042
        k(  737) = (   0.2291667   0.5172096   0.0000000), wk =   0.0026042
        k(  738) = (   0.2291667   0.5292377   0.0000000), wk =   0.0026042
        k(  739) = (   0.2291667   0.5412659   0.0000000), wk =   0.0026042
        k(  740) = (   0.2291667   0.5532940   0.0000000), wk =   0.0026042
        k(  741) = (   0.2291667   0.5653221   0.0000000), wk =   0.0026042
        k(  742) = (   0.2291667   0.5773503   0.0000000), wk =   0.0013021
        k(  743) = (   0.2395833   0.4149705   0.0000000), wk =   0.0013021
        k(  744) = (   0.2395833   0.4269986   0.0000000), wk =   0.0026042
        k(  745) = (   0.2395833   0.4390268   0.0000000), wk =   0.0026042
        k(  746) = (   0.2395833   0.4510549   0.0000000), wk =   0.0026042
        k(  747) = (   0.2395833   0.4630830   0.0000000), wk =   0.0026042
        k(  748) = (   0.2395833   0.4751112   0.0000000), wk =   0.0026042
        k(  749) = (   0.2395833   0.4871393   0.0000000), wk =   0.0026042
        k(  750) = (   0.2395833   0.4991674   0.0000000), wk =   0.0026042
        k(  751) = (   0.2395833   0.5111956   0.0000000), wk =   0.0026042
        k(  752) = (   0.2395833   0.5232237   0.0000000), wk =   0.0026042
        k(  753) = (   0.2395833   0.5352518   0.0000000), wk =   0.0026042
        k(  754) = (   0.2395833   0.5472799   0.0000000), wk =   0.0026042
        k(  755) = (   0.2395833   0.5593081   0.0000000), wk =   0.0026042
        k(  756) = (   0.2395833   0.5713362   0.0000000), wk =   0.0026042
        k(  757) = (   0.2500000   0.4330127   0.0000000), wk =   0.0013021
        k(  758) = (   0.2500000   0.4450408   0.0000000), wk =   0.0026042
        k(  759) = (   0.2500000   0.4570690   0.0000000), wk =   0.0026042
        k(  760) = (   0.2500000   0.4690971   0.0000000), wk =   0.0026042
        k(  761) = (   0.2500000   0.4811252   0.0000000), wk =   0.0026042
        k(  762) = (   0.2500000   0.4931534   0.0000000), wk =   0.0026042
        k(  763) = (   0.2500000   0.5051815   0.0000000), wk =   0.0026042
        k(  764) = (   0.2500000   0.5172096   0.0000000), wk =   0.0026042
        k(  765) = (   0.2500000   0.5292377   0.0000000), wk =   0.0026042
        k(  766) = (   0.2500000   0.5412659   0.0000000), wk =   0.0026042
        k(  767) = (   0.2500000   0.5532940   0.0000000), wk =   0.0026042
        k(  768) = (   0.2500000   0.5653221   0.0000000), wk =   0.0026042
        k(  769) = (   0.2500000   0.5773503   0.0000000), wk =   0.0013021
        k(  770) = (   0.2604167   0.4510549   0.0000000), wk =   0.0013021
        k(  771) = (   0.2604167   0.4630830   0.0000000), wk =   0.0026042
        k(  772) = (   0.2604167   0.4751112   0.0000000), wk =   0.0026042
        k(  773) = (   0.2604167   0.4871393   0.0000000), wk =   0.0026042
        k(  774) = (   0.2604167   0.4991674   0.0000000), wk =   0.0026042
        k(  775) = (   0.2604167   0.5111956   0.0000000), wk =   0.0026042
        k(  776) = (   0.2604167   0.5232237   0.0000000), wk =   0.0026042
        k(  777) = (   0.2604167   0.5352518   0.0000000), wk =   0.0026042
        k(  778) = (   0.2604167   0.5472799   0.0000000), wk =   0.0026042
        k(  779) = (   0.2604167   0.5593081   0.0000000), wk =   0.0026042
        k(  780) = (   0.2604167   0.5713362   0.0000000), wk =   0.0026042
        k(  781) = (   0.2708333   0.4690971   0.0000000), wk =   0.0013021
        k(  782) = (   0.2708333   0.4811252   0.0000000), wk =   0.0026042
        k(  783) = (   0.2708333   0.4931534   0.0000000), wk =   0.0026042
        k(  784) = (   0.2708333   0.5051815   0.0000000), wk =   0.0026042
        k(  785) = (   0.2708333   0.5172096   0.0000000), wk =   0.0026042
        k(  786) = (   0.2708333   0.5292377   0.0000000), wk =   0.0026042
        k(  787) = (   0.2708333   0.5412659   0.0000000), wk =   0.0026042
        k(  788) = (   0.2708333   0.5532940   0.0000000), wk =   0.0026042
        k(  789) = (   0.2708333   0.5653221   0.0000000), wk =   0.0026042
        k(  790) = (   0.2708333   0.5773503   0.0000000), wk =   0.0013021
        k(  791) = (   0.2812500   0.4871393   0.0000000), wk =   0.0013021
        k(  792) = (   0.2812500   0.4991674   0.0000000), wk =   0.0026042
        k(  793) = (   0.2812500   0.5111956   0.0000000), wk =   0.0026042
        k(  794) = (   0.2812500   0.5232237   0.0000000), wk =   0.0026042
        k(  795) = (   0.2812500   0.5352518   0.0000000), wk =   0.0026042
        k(  796) = (   0.2812500   0.5472799   0.0000000), wk =   0.0026042
        k(  797) = (   0.2812500   0.5593081   0.0000000), wk =   0.0026042
        k(  798) = (   0.2812500   0.5713362   0.0000000), wk =   0.0026042
        k(  799) = (   0.2916667   0.5051815   0.0000000), wk =   0.0013021
        k(  800) = (   0.2916667   0.5172096   0.0000000), wk =   0.0026042
        k(  801) = (   0.2916667   0.5292377   0.0000000), wk =   0.0026042
        k(  802) = (   0.2916667   0.5412659   0.0000000), wk =   0.0026042
        k(  803) = (   0.2916667   0.5532940   0.0000000), wk =   0.0026042
        k(  804) = (   0.2916667   0.5653221   0.0000000), wk =   0.0026042
        k(  805) = (   0.2916667   0.5773503   0.0000000), wk =   0.0013021
        k(  806) = (   0.3020833   0.5232237   0.0000000), wk =   0.0013021
        k(  807) = (   0.3020833   0.5352518   0.0000000), wk =   0.0026042
[...]

          k = 0.2604 0.4992 0.0000 (  8589 PWs)   bands (ev):

   -16.5432 -13.8479 -12.0328  -4.0167  -0.7146   8.3405   8.3552   9.3293
     9.6297  10.1155  10.6544  10.7684  10.9724  12.6487  12.9009  13.5656

     occupation numbers 
     1.0000   1.0000   1.0000   1.0000   0.0000   0.0000   0.0000   0.0000
     0.0000   0.0000   0.0000   0.0000   0.0000   0.0000   0.0000   0.0000

          k = 0.2604 0.5112 0.0000 (  8581 PWs)   bands (ev):

   -16.3629 -14.0247 -12.1031  -3.8467  -0.8943   8.4152   8.6110   9.6248
     9.8614  10.0976  10.8717  10.9867  11.0860  12.8575  13.1177  13.2746

     occupation numbers 
     1.0000   1.0000   1.0000   1.0000   0.0000   0.0000   0.0000   0.0000
     0.0000   0.0000   0.0000   0.0000   0.0000   0.0000   0.0000   0.0000

          k = 0.2604 0.5232 0.0000 (  8578 PWs)   bands (ev):

   -16.1842 -14.2023 -12.1599  -3.6858  -1.0633   8.4509   8.8830   9.9220
    10.0850  10.1119  10.9308  11.2238  11.2950  12.9007  12.9029  13.3297

     occupation numbers 
     1.0000   1.0000   1.0000   1.0000   0.0000   0.0000   0.0000   0.0000
     0.0000   0.0000   0.0000   0.0000   0.0000   0.0000   0.0000   0.0000

          k = 0.2604 0.5353 0.0000 (  8580 PWs)   bands (ev):

   -16.0105 -14.3765 -12.2043  -3.5393  -1.2163   8.4703   9.1542  10.0532
    10.2463  10.3781  10.8634  11.4703  11.5660  12.5675  12.6611  13.3052

     occupation numbers 
     1.0000   1.0000   1.0000   1.0000   0.0000   0.0000   0.0000   0.0000
     0.0000   0.0000   0.0000   0.0000   0.0000   0.0000   0.0000   0.0000

          k = 0.2604 0.5473 0.0000 (  8576 PWs)   bands (ev):

   -15.8481 -14.5401 -12.2368  -3.4145  -1.3459   8.4796   9.4207  10.0443
    10.5482  10.6555  10.7364  11.7039  11.8484  12.2287  12.3784  13.1488

     occupation numbers 
     1.0000   1.0000   1.0000   1.0000   0.0000   0.0000   0.0000   0.0000
     0.0000   0.0000   0.0000   0.0000   0.0000   0.0000   0.0000   0.0000

          k = 0.2604 0.5593 0.0000 (  8587 PWs)   bands (ev):

   -15.7106 -14.6788 -12.2582  -3.3214  -1.4422   8.4834   9.6739  10.0324
    10.5415  10.8909  10.9357  11.8065  11.8817  12.1388  12.2267  12.9477

     occupation numbers 
     1.0000   1.0000   1.0000   1.0000   0.0000   0.0000   0.0000   0.0000
     0.0000   0.0000   0.0000   0.0000   0.0000   0.0000   0.0000   0.0000

          k = 0.2604 0.5713 0.0000 (  8590 PWs)   bands (ev):

   -15.6249 -14.7651 -12.2688  -3.2710  -1.4943   8.4847   9.8858  10.0074
    10.3889  11.1847  11.2143  11.5473  11.6492  12.3327  12.4019  12.7215

     occupation numbers 
     1.0000   1.0000   1.0000   1.0000   0.0000   0.0000   0.0000   0.0000
     0.0000   0.0000   0.0000   0.0000   0.0000   0.0000   0.0000   0.0000

          k = 0.2708 0.4691 0.0000 (  8597 PWs)   bands (ev):

   -16.9044 -13.4853 -11.8727  -4.3710  -0.3324   7.8056   8.1319   8.7535
     9.2156  10.0712  10.4104  10.4591  10.4609  12.1997  12.3849  14.4246

     occupation numbers 
     1.0000   1.0000   1.0000   1.0000   0.0000   0.0000   0.0000   0.0000
     0.0000   0.0000   0.0000   0.0000   0.0000   0.0000   0.0000   0.0000

          k = 0.2708 0.4811 0.0000 (  8585 PWs)   bands (ev):

   -16.7274 -13.6307 -11.9961  -4.1912  -0.5223   8.0662   8.2505   9.0329
     9.4081  10.2943  10.4603  10.5684  10.6728  12.4197  12.6411  14.1381

     occupation numbers 
     1.0000   1.0000   1.0000   1.0000   0.0000   0.0000   0.0000   0.0000
     0.0000   0.0000   0.0000   0.0000   0.0000   0.0000   0.0000   0.0000

          k = 0.2708 0.4932 0.0000 (  8583 PWs)   bands (ev):

   -16.5488 -13.7843 -12.1029  -4.0131  -0.7091   8.3306   8.3336   9.3190
     9.6170  10.3488  10.6240  10.7586  10.8631  12.6506  12.8962  13.8245

     occupation numbers 
     1.0000   1.0000   1.0000   1.0000   0.0000   0.0000   0.0000   0.0000
     0.0000   0.0000   0.0000   0.0000   0.0000   0.0000   0.0000   0.0000

          k = 0.2708 0.5052 0.0000 (  8577 PWs)   bands (ev):

   -16.3694 -13.9447 -12.1930  -3.8384  -0.8912   8.3850   8.5980   9.6115
     9.8458  10.3316  10.8184  10.9757  11.0539  12.8809  13.1384  13.5202

     occupation numbers 
     1.0000   1.0000   1.0000   1.0000   0.0000   0.0000   0.0000   0.0000
     0.0000   0.0000   0.0000   0.0000   0.0000   0.0000   0.0000   0.0000

          k = 0.2708 0.5172 0.0000 (  8575 PWs)   bands (ev):

   -16.1906 -14.1098 -12.2673  -3.6699  -1.0658   8.4126   8.8671   9.9096
    10.0941  10.3107  10.9205  11.2132  11.2878  13.0545  13.1653  13.3951

     occupation numbers 
     1.0000   1.0000   1.0000   1.0000   0.0000   0.0000   0.0000   0.0000
     0.0000   0.0000   0.0000   0.0000   0.0000   0.0000   0.0000   0.0000

          k = 0.2708 0.5292 0.0000 (  8582 PWs)   bands (ev):

   -16.0147 -14.2763 -12.3264  -3.5116  -1.2291   8.4245   9.1360  10.2039
    10.3007  10.3589  10.9260  11.4639  11.5546  12.8552  12.9282  13.4234

     occupation numbers 
     1.0000   1.0000   1.0000   1.0000   0.0000   0.0000   0.0000   0.0000
     0.0000   0.0000   0.0000   0.0000   0.0000   0.0000   0.0000   0.0000

          k = 0.2708 0.5413 0.0000 (  8585 PWs)   bands (ev):

   -15.8461 -14.4389 -12.3712  -3.3698  -1.3747   8.4276   9.4018  10.2627
    10.5297  10.6362  10.8591  11.7160  11.8325  12.5236  12.6385  13.2893

     occupation numbers 
     1.0000   1.0000   1.0000   1.0000   0.0000   0.0000   0.0000   0.0000
     0.0000   0.0000   0.0000   0.0000   0.0000   0.0000   0.0000   0.0000

          k = 0.2708 0.5533 0.0000 (  8585 PWs)   bands (ev):

   -15.6935 -14.5878 -12.4027  -3.2536  -1.4937   8.4267   9.6591  10.2422
    10.7045  10.8762  10.9208  11.9223  12.0995  12.1992  12.3848  13.1226

     occupation numbers 
     1.0000   1.0000   1.0000   1.0000   0.0000   0.0000   0.0000   0.0000
     0.0000   0.0000   0.0000   0.0000   0.0000   0.0000   0.0000   0.0000

          k = 0.2708 0.5653 0.0000 (  8581 PWs)   bands (ev):

   -15.5764 -14.7031 -12.4213  -3.1754  -1.5735   8.4250   9.8968  10.2006
    10.5833  11.1850  11.1990  11.8454  11.8721  12.3858  12.3904  12.9269

     occupation numbers 
     1.0000   1.0000   1.0000   1.0000   0.0000   0.0000   0.0000   0.0000
     0.0000   0.0000   0.0000   0.0000   0.0000   0.0000   0.0000   0.0000

          k = 0.2708 0.5774 0.0000 (  8576 PWs)   bands (ev):

   -15.5294 -14.7494 -12.4274  -3.1475  -1.6020   8.4243  10.0708  10.1114
    10.5187  11.3735  11.4995  11.5260  11.7236  12.4997  12.5694  12.7673

     occupation numbers 
     1.0000   1.0000   1.0000   1.0000   0.0000   0.0000   0.0000   0.0000
     0.0000   0.0000   0.0000   0.0000   0.0000   0.0000   0.0000   0.0000

          k = 0.2812 0.4871 0.0000 (  8581 PWs)   bands (ev):

   -16.5506 -13.7618 -12.1275  -4.0119  -0.7072   8.3263   8.3273   9.3155
     9.6127  10.5233  10.5439  10.7553  10.7994  12.6509  12.8944  14.0475

     occupation numbers 
     1.0000   1.0000   1.0000   1.0000   0.0000   0.0000   0.0000   0.0000
     0.0000   0.0000   0.0000   0.0000   0.0000   0.0000   0.0000   0.0000

          k = 0.2812 0.4992 0.0000 (  8581 PWs)   bands (ev):

   -16.3727 -13.9012 -12.2415  -3.8342  -0.8895   8.3698   8.5914   9.6047
     9.8380  10.5279  10.7227  10.9700  11.0270  12.8886  13.1416  13.7750

     occupation numbers 
     1.0000   1.0000   1.0000   1.0000   0.0000   0.0000   0.0000   0.0000
     0.0000   0.0000   0.0000   0.0000   0.0000   0.0000   0.0000   0.0000

          k = 0.2812 0.5112 0.0000 (  8579 PWs)   bands (ev):

   -16.1946 -14.0481 -12.3377  -3.6603  -1.0672   8.3893   8.8574   9.9000
    10.0833  10.5044  10.8626  11.2064  11.2808  13.1143  13.3396  13.5049

     occupation numbers 
     1.0000   1.0000   1.0000   1.0000   0.0000   0.0000   0.0000   0.0000
     0.0000   0.0000   0.0000   0.0000   0.0000   0.0000   0.0000   0.0000

          k = 0.2812 0.5232 0.0000 (  8576 PWs)   bands (ev):

   -16.0180 -14.2006 -12.4163  -3.4930  -1.2375   8.3935   9.1236  10.2001
    10.3457  10.4812  10.9349  11.4580  11.5489  13.1329  13.1750  13.5285

     occupation numbers 
     1.0000   1.0000   1.0000   1.0000   0.0000   0.0000   0.0000   0.0000
     0.0000   0.0000   0.0000   0.0000   0.0000   0.0000   0.0000   0.0000

          k = 0.2812 0.5353 0.0000 (  8579 PWs)   bands (ev):

   -15.8458 -14.3550 -12.4778  -3.3370  -1.3959   8.3897   9.3872  10.4420
    10.5200  10.6217  10.9386  11.7176  11.8237  12.8157  12.9143  13.4264

     occupation numbers 
     1.0000   1.0000   1.0000   1.0000   0.0000   0.0000   0.0000   0.0000
     0.0000   0.0000   0.0000   0.0000   0.0000   0.0000   0.0000   0.0000

          k = 0.2812 0.5473 0.0000 (  8579 PWs)   bands (ev):

   -15.6837 -14.5047 -12.5231  -3.2000  -1.5347   8.3829   9.6441  10.4226
    10.7872  10.9071  10.9154  11.9661  12.0974  12.4882  12.6206  13.2692

     occupation numbers 
     1.0000   1.0000   1.0000   1.0000   0.0000   0.0000   0.0000   0.0000
     0.0000   0.0000   0.0000   0.0000   0.0000   0.0000   0.0000   0.0000

          k = 0.2812 0.5593 0.0000 (  8585 PWs)   bands (ev):

   -15.5444 -14.6364 -12.5528  -3.0937  -1.6421   8.3767   9.8867  10.3772
    10.7631  11.1650  11.1952  12.0813  12.1435  12.3762  12.4634  13.1049

     occupation numbers 
     1.0000   1.0000   1.0000   1.0000   0.0000   0.0000   0.0000   0.0000
     0.0000   0.0000   0.0000   0.0000   0.0000   0.0000   0.0000   0.0000

          k = 0.2812 0.5713 0.0000 (  8577 PWs)   bands (ev):

   -15.4554 -14.7217 -12.5675  -3.0340  -1.7023   8.3731  10.0966  10.2881
    10.6944  11.4552  11.4857  11.8156  11.9056  12.5989  12.6056  12.9302

     occupation numbers 
     1.0000   1.0000   1.0000   1.0000   0.0000   0.0000   0.0000   0.0000
     0.0000   0.0000   0.0000   0.0000   0.0000   0.0000   0.0000   0.0000

          k = 0.2917 0.5052 0.0000 (  8573 PWs)   bands (ev):

   -16.1959 -14.0263 -12.3624  -3.6571  -1.0676   8.3814   8.8542   9.8967
    10.0797  10.6059  10.8075  11.2040  11.2777  13.1281  13.3678  13.6908

     occupation numbers 
     1.0000   1.0000   1.0000   1.0000   0.0000   0.0000   0.0000   0.0000
     0.0000   0.0000   0.0000   0.0000   0.0000   0.0000   0.0000   0.0000

          k = 0.2917 0.5172 0.0000 (  8580 PWs)   bands (ev):

   -16.0197 -14.1593 -12.4646  -3.4837  -1.2417   8.3779   9.1173  10.1944
    10.3391  10.6068  10.9100  11.4547  11.5464  13.3321  13.3914  13.5795

     occupation numbers 
     1.0000   1.0000   1.0000   1.0000   0.0000   0.0000   0.0000   0.0000
     0.0000   0.0000   0.0000   0.0000   0.0000   0.0000   0.0000   0.0000

          k = 0.2917 0.5292 0.0000 (  8581 PWs)   bands (ev):

   -15.8461 -14.2986 -12.5474  -3.3171  -1.4087   8.3666   9.3782  10.4943
    10.5902  10.6127  10.9732  11.7165  11.8202  13.0991  13.1902  13.5875

     occupation numbers 
     1.0000   1.0000   1.0000   1.0000   0.0000   0.0000   0.0000   0.0000
     0.0000   0.0000   0.0000   0.0000   0.0000   0.0000   0.0000   0.0000

          k = 0.2917 0.5413 0.0000 (  8581 PWs)   bands (ev):

   -15.6786 -14.4403 -12.6111  -3.1627  -1.5634   8.3532   9.6332  10.5574
    10.7940  10.8971  10.9933  11.9801  12.0928  12.7833  12.8881  13.4089

     occupation numbers 
     1.0000   1.0000   1.0000   1.0000   0.0000   0.0000   0.0000   0.0000
     0.0000   0.0000   0.0000   0.0000   0.0000   0.0000   0.0000   0.0000

          k = 0.2917 0.5533 0.0000 (  8595 PWs)   bands (ev):

   -15.5249 -14.5762 -12.6560  -3.0301  -1.6960   8.3413   9.8761  10.5150
    10.9042  11.1571  11.1881  12.2040  12.3442  12.4710  12.6232  13.2512

     occupation numbers 
     1.0000   1.0000   1.0000   1.0000   0.0000   0.0000   0.0000   0.0000
     0.0000   0.0000   0.0000   0.0000   0.0000   0.0000   0.0000   0.0000

          k = 0.2917 0.5653 0.0000 (  8589 PWs)   bands (ev):

   -15.4034 -14.6873 -12.6826  -2.9357  -1.7905   8.3333  10.0951  10.4409
    10.8605  11.4675  11.4739  12.1196  12.1476  12.6082  12.6451  13.0996

     occupation numbers 
     1.0000   1.0000   1.0000   1.0000   0.0000   0.0000   0.0000   0.0000
     0.0000   0.0000   0.0000   0.0000   0.0000   0.0000   0.0000   0.0000

          k = 0.2917 0.5774 0.0000 (  8578 PWs)   bands (ev):

   -15.3528 -14.7345 -12.6915  -2.9004  -1.8257   8.3304  10.2337  10.3557
    10.8375  11.6596  11.7760  11.8079  11.9826  12.7489  12.7855  12.9930

     occupation numbers 
     1.0000   1.0000   1.0000   1.0000   0.0000   0.0000   0.0000   0.0000
     0.0000   0.0000   0.0000   0.0000   0.0000   0.0000   0.0000   0.0000

          k = 0.3021 0.5232 0.0000 (  8589 PWs)   bands (ev):

   -15.8462 -14.2786 -12.5717  -3.3103  -1.4131   8.3588   9.3752  10.4934
    10.6097  10.6381  10.9797  11.7158  11.8195  13.3508  13.3923  13.4038

     occupation numbers 
     1.0000   1.0000   1.0000   1.0000   0.0000   0.0000   0.0000   0.0000
     0.0000   0.0000   0.0000   0.0000   0.0000   0.0000   0.0000   0.0000

          k = 0.3021 0.5353 0.0000 (  8587 PWs)   bands (ev):

   -15.6764 -14.4048 -12.6580  -3.1435  -1.5782   8.3381   9.6276  10.6312
    10.7902  10.8919  11.0390  11.9841  12.0916  13.0694  13.1435  13.3491

     occupation numbers 
     1.0000   1.0000   1.0000   1.0000   0.0000   0.0000   0.0000   0.0000
     0.0000   0.0000   0.0000   0.0000   0.0000   0.0000   0.0000   0.0000

          k = 0.3021 0.5473 0.0000 (  8591 PWs)   bands (ev):

   -15.5146 -14.5339 -12.7227  -2.9893  -1.7309   8.3196   9.8690  10.6032
    10.9870  11.1634  11.1826  12.2454  12.3534  12.7588  12.8540  13.3103

     occupation numbers 
     1.0000   1.0000   1.0000   1.0000   0.0000   0.0000   0.0000   0.0000
     0.0000   0.0000   0.0000   0.0000   0.0000   0.0000   0.0000   0.0000

          k = 0.3021 0.5593 0.0000 (  8593 PWs)   bands (ev):

   -15.3713 -14.6556 -12.7657  -2.8604  -1.8588   8.3060  10.0901  10.5509
    10.9875  11.4572  11.4761  12.3765  12.4180  12.6159  12.6923  13.2154

     occupation numbers 
     1.0000   1.0000   1.0000   1.0000   0.0000   0.0000   0.0000   0.0000
     0.0000   0.0000   0.0000   0.0000   0.0000   0.0000   0.0000   0.0000

          k = 0.3021 0.5713 0.0000 (  8590 PWs)   bands (ev):

   -15.2742 -14.7420 -12.7871  -2.7814  -1.9373   8.2988  10.2695  10.4683
    10.9650  11.7460  11.7753  12.1009  12.1771  12.7990  12.8724  13.1014

     occupation numbers 
     1.0000   1.0000   1.0000   1.0000   0.0000   0.0000   0.0000   0.0000
     0.0000   0.0000   0.0000   0.0000   0.0000   0.0000   0.0000   0.0000

          k = 0.3125 0.5413 0.0000 (  8597 PWs)   bands (ev):

   -15.5114 -14.5186 -12.7459  -2.9752  -1.7431   8.3123   9.8665  10.6337
    11.0112  11.1706  11.1807  12.2546  12.3544  13.0134  13.0206  13.0773

     occupation numbers 
     1.0000   1.0000   1.0000   1.0000   0.0000   0.0000   0.0000   0.0000
     0.0000   0.0000   0.0000   0.0000   0.0000   0.0000   0.0000   0.0000

          k = 0.3125 0.5533 0.0000 (  8593 PWs)   bands (ev):

   -15.3563 -14.6365 -12.8095  -2.8186  -1.8971   8.2921  10.0869  10.6088
    11.0562  11.4533  11.4754  12.5010  12.5868  12.7470  12.7952  13.0335

     occupation numbers 
     1.0000   1.0000   1.0000   1.0000   0.0000   0.0000   0.0000   0.0000
     0.0000   0.0000   0.0000   0.0000   0.0000   0.0000   0.0000   0.0000

          k = 0.3125 0.5653 0.0000 (  8588 PWs)   bands (ev):

   -15.2248 -14.7453 -12.8480  -2.6912  -2.0229   8.2793  10.2747  10.5565
    11.0513  11.7668  11.7671  12.4072  12.4314  12.8125  12.8424  13.0120

     occupation numbers 
     1.0000   1.0000   1.0000   1.0000   0.0000   0.0000   0.0000   0.0000
     0.0000   0.0000   0.0000   0.0000   0.0000   0.0000   0.0000   0.0000

          k = 0.3125 0.5774 0.0000 (  8584 PWs)   bands (ev):

   -15.1633 -14.7993 -12.8608  -2.6362  -2.0774   8.2750  10.3808  10.5003
    11.0442  11.9667  12.0694  12.1053  12.2438  12.9212  12.9812  13.0188

     occupation numbers 
     1.0000   1.0000   1.0000   1.0000   0.0000   0.0000   0.0000   0.0000
     0.0000   0.0000   0.0000   0.0000   0.0000   0.0000   0.0000   0.0000

          k = 0.3229 0.5593 0.0000 (  8586 PWs)   bands (ev):

   -15.2080 -14.7461 -12.8689  -2.6554  -2.0572   8.2728  10.2753  10.5882
    11.0819  11.7641  11.7710  12.6437  12.6956  12.7007  12.7154  12.8630

     occupation numbers 
     1.0000   1.0000   1.0000   1.0000   0.0000   0.0000   0.0000   0.0000
     0.0000   0.0000   0.0000   0.0000   0.0000   0.0000   0.0000   0.0000

          k = 0.3229 0.5713 0.0000 (  8600 PWs)   bands (ev):

   -15.0875 -14.8469 -12.8991  -2.5227  -2.1884   8.2628  10.4154  10.5428
    11.0851  12.0513  12.0799  12.3986  12.4146  12.7041  12.8022  12.9825

     occupation numbers 
     1.0000   1.0000   1.0000   1.0000  -0.0000   0.0000   0.0000   0.0000
     0.0000   0.0000   0.0000   0.0000   0.0000   0.0000   0.0000   0.0000

          k = 0.3333 0.5774 0.0000 (  8592 PWs)   bands (ev):

   -14.9611 -14.9611 -12.9164  -2.3550  -2.3550   8.2572  10.5020  10.5020
    11.0942  12.2948  12.2948  12.3772  12.3772  12.4327  12.7026  13.0962

     occupation numbers 
     1.0000   1.0000   1.0000   1.0000   0.0000   0.0000   0.0000   0.0000
     0.0000   0.0000   0.0000   0.0000   0.0000   0.0000   0.0000   0.0000

     the Fermi energy is    -2.3550 ev
     (compare with:    -2.3549 eV, computed in scf)

     Writing all to output data dir ../SCF/out/graphene.save/

     init_run     :      0.25s CPU      0.33s WALL (       1 calls)
     electrons    :    125.21s CPU    240.13s WALL (       1 calls)

     Called by init_run:
     wfcinit      :      0.00s CPU      0.00s WALL (       1 calls)
     wfcinit:atom :      0.03s CPU      0.06s WALL (     817 calls)
     wfcinit:wfcr :      2.87s CPU      5.62s WALL (     817 calls)
     potinit      :      0.01s CPU      0.03s WALL (       1 calls)
     hinit0       :      0.18s CPU      0.21s WALL (       1 calls)

     Called by electrons:
     c_bands      :    125.00s CPU    239.83s WALL (       1 calls)
     v_of_rho     :      0.00s CPU      0.01s WALL (       1 calls)
     v_h          :      0.00s CPU      0.00s WALL (       1 calls)
     v_xc         :      0.00s CPU      0.01s WALL (       1 calls)
     newd         :      0.00s CPU      0.01s WALL (       1 calls)
     PAW_pot      :      0.00s CPU      0.02s WALL (       1 calls)

     Called by c_bands:
     init_us_2    :      0.02s CPU      0.05s WALL (     817 calls)
     init_us_2:cp :      0.02s CPU      0.05s WALL (     817 calls)
     cegterg      :    121.48s CPU    228.90s WALL (    2981 calls)

     Called by sum_band:

     Called by *egterg:
     cdiaghg      :      7.26s CPU     13.41s WALL (   51600 calls)
     cegterg:over :      6.62s CPU     14.61s WALL (   50783 calls)
     cegterg:upda :      1.76s CPU      2.60s WALL (   50783 calls)
     cegterg:last :      4.04s CPU      5.83s WALL (   31756 calls)
     h_psi        :     99.00s CPU    188.35s WALL (   54581 calls)
     s_psi        :      0.68s CPU      1.18s WALL (   54581 calls)
     g_psi        :      0.80s CPU      1.11s WALL (   50783 calls)

     Called by h_psi:
     h_psi:calbec :      3.05s CPU      6.47s WALL (   54581 calls)
     vloc_psi     :     94.91s CPU    180.04s WALL (   54581 calls)
     add_vuspsi   :      0.72s CPU      1.35s WALL (   54581 calls)

     General routines
     calbec       :      3.01s CPU      6.42s WALL (   54581 calls)
     fft          :      0.16s CPU      0.17s WALL (      12 calls)
     fftw         :     90.44s CPU    172.45s WALL (  945140 calls)
     davcio       :      0.08s CPU      1.32s WALL (    1634 calls)

     Parallel routines

     PAW routines
     PAW_pot      :      0.00s CPU      0.02s WALL (       1 calls)

     PWSCF        :   2m 9.57s CPU   4m23.55s WALL


   This run was terminated on:  19:39:56  10Dec2023            

=------------------------------------------------------------------------------=
   JOB DONE.
=------------------------------------------------------------------------------=
