
     Program PWSCF v.7.2 starts on 17Nov2023 at 10: 6:54 

     This program is part of the open-source Quantum ESPRESSO suite
     for quantum simulation of materials; please cite
         "P. Giannozzi et al., J. Phys.:Condens. Matter 21 395502 (2009);
         "P. Giannozzi et al., J. Phys.:Condens. Matter 29 465901 (2017);
         "P. Giannozzi et al., J. Chem. Phys. 152 154105 (2020);
          URL http://www.quantum-espresso.org", 
     in publications or presentations arising from this work. More details at
     http://www.quantum-espresso.org/quote

     Parallel version (MPI & OpenMP), running on       4 processor cores
     Number of MPI processes:                 2
     Threads/MPI process:                     2

     MPI processes distributed on     1 nodes
     1162 MiB available memory on the printing compute node when the environment starts

     Reading input from graphene.scf.pwi

     Current dimensions of program PWSCF are:
     Max number of different atomic species (ntypx) = 10
     Max number of k-points (npk) =  40000
     Max angular momentum in pseudopotentials (lmaxx) =  4
     file C.pbe-n-kjpaw_psl.1.0.0.UPF: wavefunction(s)  2S 2P renormalized

     R & G space division:  proc/nbgrp/npool/nimage =       2
     Subspace diagonalization in iterative solution of the eigenvalue problem:
     a serial algorithm will be used


     Parallelization info
     --------------------
     sticks:   dense  smooth     PW     G-vecs:    dense   smooth      PW
     Min         297     150     45                48017    17042    3029
     Max         298     151     46                48026    17065    3036
     Sum         595     301     91                96043    34107    6065

     Using Slab Decomposition


     Title: 
     graphene                                                                   


     bravais-lattice index     =            4
     lattice parameter (alat)  =       4.6627  a.u.
     unit-cell volume          =     711.6007 (a.u.)^3
     number of atoms/cell      =            2
     number of atomic types    =            1
     number of electrons       =         8.00
     number of Kohn-Sham states=            4
     kinetic-energy cutoff     =      50.0000  Ry
     charge density cutoff     =     400.0000  Ry
     scf convergence threshold =      1.0E-10
     mixing beta               =       0.3000
     number of iterations used =            8  plain     mixing
     Exchange-correlation= SLA  PW   PBX  PBC
                           (   1   4   3   4   0   0   0)

     celldm(1)=   4.662710  celldm(2)=   0.000000  celldm(3)=   8.105698
     celldm(4)=   0.000000  celldm(5)=   0.000000  celldm(6)=   0.000000

     crystal axes: (cart. coord. in units of alat)
               a(1) = (   1.000000   0.000000   0.000000 )  
               a(2) = (  -0.500000   0.866025   0.000000 )  
               a(3) = (   0.000000   0.000000   8.105698 )  

     reciprocal axes: (cart. coord. in units 2 pi/alat)
               b(1) = (  1.000000  0.577350 -0.000000 )  
               b(2) = (  0.000000  1.154701  0.000000 )  
               b(3) = (  0.000000 -0.000000  0.123370 )  


     PseudoPot. # 1 for C  read from file:
     ../../pseudos/C.pbe-n-kjpaw_psl.1.0.0.UPF
     MD5 check sum: 5d2aebdfa2cae82b50a7e79e9516da0f
     Pseudo is Projector augmented-wave + core cor, Zval =  4.0
     Generated using "atomic" code by A. Dal Corso  v.5.1
     Shape of augmentation charge: PSQ
     Using radial grid of 1073 points,  4 beta functions with: 
                l(1) =   0
                l(2) =   0
                l(3) =   1
                l(4) =   1
     Q(r) pseudized with 0 coefficients 


     atomic species   valence    mass     pseudopotential
        C              4.00    12.01100     C ( 1.00)

     24 Sym. Ops., with inversion, found (18 have fractional translation)


                                    s                        frac. trans.

      isym =  1     identity                                     

 cryst.   s( 1) = (     1          0          0      )
                  (     0          1          0      )
                  (     0          0          1      )

 cart.    s( 1) = (  1.0000000  0.0000000  0.0000000 )
                  (  0.0000000  1.0000000  0.0000000 )
                  (  0.0000000  0.0000000  1.0000000 )


      isym =  2     180 deg rotation - cart. axis [0,0,1]        

 cryst.   s( 2) = (    -1          0          0      )    f =( -0.3333333 )
                  (     0         -1          0      )       (  0.3333333 )
                  (     0          0          1      )       (  0.0000000 )

 cart.    s( 2) = ( -1.0000000  0.0000000  0.0000000 )    f =( -0.5000000 )
                  (  0.0000000 -1.0000000  0.0000000 )       (  0.2886751 )
                  (  0.0000000  0.0000000  1.0000000 )       (  0.0000000 )


      isym =  3     180 deg rotation - cart. axis [0,1,0]        

 cryst.   s( 3) = (    -1          0          0      )    f =(  0.0000000 )
                  (     1          1          0      )       (  0.0000000 )
                  (     0          0         -1      )       (  0.5000000 )

 cart.    s( 3) = ( -1.0000000  0.0000000  0.0000000 )    f =(  0.0000000 )
                  (  0.0000000  1.0000000  0.0000000 )       (  0.0000000 )
                  (  0.0000000  0.0000000 -1.0000000 )       (  4.0528492 )


      isym =  4     180 deg rotation - cart. axis [1,0,0]        

 cryst.   s( 4) = (     1          0          0      )    f =( -0.3333333 )
                  (    -1         -1          0      )       (  0.3333333 )
                  (     0          0         -1      )       (  0.5000000 )

 cart.    s( 4) = (  1.0000000  0.0000000  0.0000000 )    f =( -0.5000000 )
                  (  0.0000000 -1.0000000  0.0000000 )       (  0.2886751 )
                  (  0.0000000  0.0000000 -1.0000000 )       (  4.0528492 )


      isym =  5      60 deg rotation - cryst. axis [0,0,1]       

 cryst.   s( 5) = (     1          1          0      )    f =( -0.3333333 )
                  (    -1          0          0      )       (  0.3333333 )
                  (     0          0          1      )       (  0.0000000 )

 cart.    s( 5) = (  0.5000000 -0.8660254  0.0000000 )    f =( -0.5000000 )
                  (  0.8660254  0.5000000  0.0000000 )       (  0.2886751 )
                  (  0.0000000  0.0000000  1.0000000 )       (  0.0000000 )


      isym =  6      60 deg rotation - cryst. axis [0,0,-1]      

 cryst.   s( 6) = (     0         -1          0      )    f =( -0.3333333 )
                  (     1          1          0      )       (  0.3333333 )
                  (     0          0          1      )       (  0.0000000 )

 cart.    s( 6) = (  0.5000000  0.8660254  0.0000000 )    f =( -0.5000000 )
                  ( -0.8660254  0.5000000  0.0000000 )       (  0.2886751 )
                  (  0.0000000  0.0000000  1.0000000 )       (  0.0000000 )


      isym =  7     120 deg rotation - cryst. axis [0,0,1]       

 cryst.   s( 7) = (     0          1          0      )
                  (    -1         -1          0      )
                  (     0          0          1      )

 cart.    s( 7) = ( -0.5000000 -0.8660254  0.0000000 )
                  (  0.8660254 -0.5000000  0.0000000 )
                  (  0.0000000  0.0000000  1.0000000 )


      isym =  8     120 deg rotation - cryst. axis [0,0,-1]      

 cryst.   s( 8) = (    -1         -1          0      )
                  (     1          0          0      )
                  (     0          0          1      )

 cart.    s( 8) = ( -0.5000000  0.8660254  0.0000000 )
                  ( -0.8660254 -0.5000000  0.0000000 )
                  (  0.0000000  0.0000000  1.0000000 )


      isym =  9     180 deg rotation - cryst. axis [1,-1,0]      

 cryst.   s( 9) = (     0         -1          0      )    f =(  0.0000000 )
                  (    -1          0          0      )       (  0.0000000 )
                  (     0          0         -1      )       (  0.5000000 )

 cart.    s( 9) = (  0.5000000 -0.8660254  0.0000000 )    f =(  0.0000000 )
                  ( -0.8660254 -0.5000000  0.0000000 )       (  0.0000000 )
                  (  0.0000000  0.0000000 -1.0000000 )       (  4.0528492 )


      isym = 10     180 deg rotation - cryst. axis [2,1,0]       

 cryst.   s(10) = (     1          1          0      )    f =(  0.0000000 )
                  (     0         -1          0      )       (  0.0000000 )
                  (     0          0         -1      )       (  0.5000000 )

 cart.    s(10) = (  0.5000000  0.8660254  0.0000000 )    f =(  0.0000000 )
                  (  0.8660254 -0.5000000  0.0000000 )       (  0.0000000 )
                  (  0.0000000  0.0000000 -1.0000000 )       (  4.0528492 )


      isym = 11     180 deg rotation - cryst. axis [0,1,0]       

 cryst.   s(11) = (    -1         -1          0      )    f =( -0.3333333 )
                  (     0          1          0      )       (  0.3333333 )
                  (     0          0         -1      )       (  0.5000000 )

 cart.    s(11) = ( -0.5000000 -0.8660254  0.0000000 )    f =( -0.5000000 )
                  ( -0.8660254  0.5000000  0.0000000 )       (  0.2886751 )
                  (  0.0000000  0.0000000 -1.0000000 )       (  4.0528492 )


      isym = 12     180 deg rotation - cryst. axis [1,1,0]       

 cryst.   s(12) = (     0          1          0      )    f =( -0.3333333 )
                  (     1          0          0      )       (  0.3333333 )
                  (     0          0         -1      )       (  0.5000000 )

 cart.    s(12) = ( -0.5000000  0.8660254  0.0000000 )    f =( -0.5000000 )
                  (  0.8660254  0.5000000  0.0000000 )       (  0.2886751 )
                  (  0.0000000  0.0000000 -1.0000000 )       (  4.0528492 )


      isym = 13     inversion                                    

 cryst.   s(13) = (    -1          0          0      )    f =( -0.3333333 )
                  (     0         -1          0      )       (  0.3333333 )
                  (     0          0         -1      )       (  0.5000000 )

 cart.    s(13) = ( -1.0000000  0.0000000  0.0000000 )    f =( -0.5000000 )
                  (  0.0000000 -1.0000000  0.0000000 )       (  0.2886751 )
                  (  0.0000000  0.0000000 -1.0000000 )       (  4.0528492 )


      isym = 14     inv. 180 deg rotation - cart. axis [0,0,1]   

 cryst.   s(14) = (     1          0          0      )    f =(  0.0000000 )
                  (     0          1          0      )       (  0.0000000 )
                  (     0          0         -1      )       (  0.5000000 )

 cart.    s(14) = (  1.0000000  0.0000000  0.0000000 )    f =(  0.0000000 )
                  (  0.0000000  1.0000000  0.0000000 )       (  0.0000000 )
                  (  0.0000000  0.0000000 -1.0000000 )       (  4.0528492 )


      isym = 15     inv. 180 deg rotation - cart. axis [0,1,0]   

 cryst.   s(15) = (     1          0          0      )    f =( -0.3333333 )
                  (    -1         -1          0      )       (  0.3333333 )
                  (     0          0          1      )       (  0.0000000 )

 cart.    s(15) = (  1.0000000  0.0000000  0.0000000 )    f =( -0.5000000 )
                  (  0.0000000 -1.0000000  0.0000000 )       (  0.2886751 )
                  (  0.0000000  0.0000000  1.0000000 )       (  0.0000000 )


      isym = 16     inv. 180 deg rotation - cart. axis [1,0,0]   

 cryst.   s(16) = (    -1          0          0      )
                  (     1          1          0      )
                  (     0          0          1      )

 cart.    s(16) = ( -1.0000000  0.0000000  0.0000000 )
                  (  0.0000000  1.0000000  0.0000000 )
                  (  0.0000000  0.0000000  1.0000000 )


      isym = 17     inv.  60 deg rotation - cryst. axis [0,0,1]  

 cryst.   s(17) = (    -1         -1          0      )    f =(  0.0000000 )
                  (     1          0          0      )       (  0.0000000 )
                  (     0          0         -1      )       (  0.5000000 )

 cart.    s(17) = ( -0.5000000  0.8660254  0.0000000 )    f =(  0.0000000 )
                  ( -0.8660254 -0.5000000  0.0000000 )       (  0.0000000 )
                  (  0.0000000  0.0000000 -1.0000000 )       (  4.0528492 )


      isym = 18     inv.  60 deg rotation - cryst. axis [0,0,-1] 

 cryst.   s(18) = (     0          1          0      )    f =(  0.0000000 )
                  (    -1         -1          0      )       (  0.0000000 )
                  (     0          0         -1      )       (  0.5000000 )

 cart.    s(18) = ( -0.5000000 -0.8660254  0.0000000 )    f =(  0.0000000 )
                  (  0.8660254 -0.5000000  0.0000000 )       (  0.0000000 )
                  (  0.0000000  0.0000000 -1.0000000 )       (  4.0528492 )


      isym = 19     inv. 120 deg rotation - cryst. axis [0,0,1]  

 cryst.   s(19) = (     0         -1          0      )    f =( -0.3333333 )
                  (     1          1          0      )       (  0.3333333 )
                  (     0          0         -1      )       (  0.5000000 )

 cart.    s(19) = (  0.5000000  0.8660254  0.0000000 )    f =( -0.5000000 )
                  ( -0.8660254  0.5000000  0.0000000 )       (  0.2886751 )
                  (  0.0000000  0.0000000 -1.0000000 )       (  4.0528492 )


      isym = 20     inv. 120 deg rotation - cryst. axis [0,0,-1] 

 cryst.   s(20) = (     1          1          0      )    f =( -0.3333333 )
                  (    -1          0          0      )       (  0.3333333 )
                  (     0          0         -1      )       (  0.5000000 )

 cart.    s(20) = (  0.5000000 -0.8660254  0.0000000 )    f =( -0.5000000 )
                  (  0.8660254  0.5000000  0.0000000 )       (  0.2886751 )
                  (  0.0000000  0.0000000 -1.0000000 )       (  4.0528492 )


      isym = 21     inv. 180 deg rotation - cryst. axis [1,-1,0] 

 cryst.   s(21) = (     0          1          0      )    f =( -0.3333333 )
                  (     1          0          0      )       (  0.3333333 )
                  (     0          0          1      )       (  0.0000000 )

 cart.    s(21) = ( -0.5000000  0.8660254  0.0000000 )    f =( -0.5000000 )
                  (  0.8660254  0.5000000  0.0000000 )       (  0.2886751 )
                  (  0.0000000  0.0000000  1.0000000 )       (  0.0000000 )


      isym = 22     inv. 180 deg rotation - cryst. axis [2,1,0]  

 cryst.   s(22) = (    -1         -1          0      )    f =( -0.3333333 )
                  (     0          1          0      )       (  0.3333333 )
                  (     0          0          1      )       (  0.0000000 )

 cart.    s(22) = ( -0.5000000 -0.8660254  0.0000000 )    f =( -0.5000000 )
                  ( -0.8660254  0.5000000  0.0000000 )       (  0.2886751 )
                  (  0.0000000  0.0000000  1.0000000 )       (  0.0000000 )


      isym = 23     inv. 180 deg rotation - cryst. axis [0,1,0]  

 cryst.   s(23) = (     1          1          0      )
                  (     0         -1          0      )
                  (     0          0          1      )

 cart.    s(23) = (  0.5000000  0.8660254  0.0000000 )
                  (  0.8660254 -0.5000000  0.0000000 )
                  (  0.0000000  0.0000000  1.0000000 )


      isym = 24     inv. 180 deg rotation - cryst. axis [1,1,0]  

 cryst.   s(24) = (     0         -1          0      )
                  (    -1          0          0      )
                  (     0          0          1      )

 cart.    s(24) = (  0.5000000 -0.8660254  0.0000000 )
                  ( -0.8660254 -0.5000000  0.0000000 )
                  (  0.0000000  0.0000000  1.0000000 )


     point group D_6h(6/mmm)
     there are 12 classes
     the character table:

       E     2C6   2C3   C2    3C2'  3C2'' i     2S3   2S6   s_h   3s_d  3s_v 
A_1g   1.00  1.00  1.00  1.00  1.00  1.00  1.00  1.00  1.00  1.00  1.00  1.00
A_2g   1.00  1.00  1.00  1.00 -1.00 -1.00  1.00  1.00  1.00  1.00 -1.00 -1.00
B_1g   1.00 -1.00  1.00 -1.00  1.00 -1.00  1.00 -1.00  1.00 -1.00  1.00 -1.00
B_2g   1.00 -1.00  1.00 -1.00 -1.00  1.00  1.00 -1.00  1.00 -1.00 -1.00  1.00
E_1g   2.00  1.00 -1.00 -2.00  0.00  0.00  2.00  1.00 -1.00 -2.00  0.00  0.00
E_2g   2.00 -1.00 -1.00  2.00  0.00  0.00  2.00 -1.00 -1.00  2.00  0.00  0.00
A_1u   1.00  1.00  1.00  1.00  1.00  1.00 -1.00 -1.00 -1.00 -1.00 -1.00 -1.00
A_2u   1.00  1.00  1.00  1.00 -1.00 -1.00 -1.00 -1.00 -1.00 -1.00  1.00  1.00
B_1u   1.00 -1.00  1.00 -1.00  1.00 -1.00 -1.00  1.00 -1.00  1.00 -1.00  1.00
B_2u   1.00 -1.00  1.00 -1.00 -1.00  1.00 -1.00  1.00 -1.00  1.00  1.00 -1.00
E_1u   2.00  1.00 -1.00 -2.00  0.00  0.00 -2.00 -1.00  1.00  2.00  0.00  0.00
E_2u   2.00 -1.00 -1.00  2.00  0.00  0.00 -2.00  1.00  1.00 -2.00  0.00  0.00

     the symmetry operations in each class and the name of the first element:

     E        1
          identity                                               
     2C6      5    6
           60 deg rotation - cryst. axis [0,0,1]                 
     2C3      7    8
          120 deg rotation - cryst. axis [0,0,1]                 
     C2       2
          180 deg rotation - cart. axis [0,0,1]                  
     3C2'     4   12   11
          180 deg rotation - cart. axis [1,0,0]                  
     3C2''    3    9   10
          180 deg rotation - cart. axis [0,1,0]                  
     i       13
          inversion                                              
     2S3     17   18
          inv.  60 deg rotation - cryst. axis [0,0,1]            
     2S6     19   20
          inv. 120 deg rotation - cryst. axis [0,0,1]            
     s_h     14
          inv. 180 deg rotation - cart. axis [0,0,1]             
     3s_d    16   24   23
          inv. 180 deg rotation - cart. axis [1,0,0]             
     3s_v    15   21   22
          inv. 180 deg rotation - cart. axis [0,1,0]             

   Cartesian axes

     site n.     atom                  positions (alat units)
         1           C   tau(   1) = (   0.0000000   0.0000000   2.0264246  )
         2           C   tau(   2) = (  -0.0000000   0.5773503   2.0264246  )

   Crystallographic axes

     site n.     atom                  positions (cryst. coord.)
         1           C   tau(   1) = (  0.0000000  0.0000000  0.2500000  )
         2           C   tau(   2) = (  0.3333333  0.6666667  0.2500000  )

     number of k points=   217
                       cart. coord. in units 2pi/alat
        k(    1) = (   0.0000000   0.0000000   0.0000000), wk =   0.0008681
        k(    2) = (   0.0000000   0.0240563   0.0000000), wk =   0.0052083
        k(    3) = (   0.0000000   0.0481125   0.0000000), wk =   0.0052083
        k(    4) = (   0.0000000   0.0721688   0.0000000), wk =   0.0052083
        k(    5) = (   0.0000000   0.0962250   0.0000000), wk =   0.0052083
        k(    6) = (   0.0000000   0.1202813   0.0000000), wk =   0.0052083
        k(    7) = (   0.0000000   0.1443376   0.0000000), wk =   0.0052083
        k(    8) = (   0.0000000   0.1683938   0.0000000), wk =   0.0052083
        k(    9) = (   0.0000000   0.1924501   0.0000000), wk =   0.0052083
        k(   10) = (   0.0000000   0.2165064   0.0000000), wk =   0.0052083
        k(   11) = (   0.0000000   0.2405626   0.0000000), wk =   0.0052083
        k(   12) = (   0.0000000   0.2646189   0.0000000), wk =   0.0052083
        k(   13) = (   0.0000000   0.2886751   0.0000000), wk =   0.0052083
        k(   14) = (   0.0000000   0.3127314   0.0000000), wk =   0.0052083
        k(   15) = (   0.0000000   0.3367877   0.0000000), wk =   0.0052083
        k(   16) = (   0.0000000   0.3608439   0.0000000), wk =   0.0052083
        k(   17) = (   0.0000000   0.3849002   0.0000000), wk =   0.0052083
        k(   18) = (   0.0000000   0.4089564   0.0000000), wk =   0.0052083
        k(   19) = (   0.0000000   0.4330127   0.0000000), wk =   0.0052083
        k(   20) = (   0.0000000   0.4570690   0.0000000), wk =   0.0052083
        k(   21) = (   0.0000000   0.4811252   0.0000000), wk =   0.0052083
        k(   22) = (   0.0000000   0.5051815   0.0000000), wk =   0.0052083
        k(   23) = (   0.0000000   0.5292377   0.0000000), wk =   0.0052083
        k(   24) = (   0.0000000   0.5532940   0.0000000), wk =   0.0052083
        k(   25) = (   0.0000000  -0.5773503   0.0000000), wk =   0.0026042
        k(   26) = (   0.0208333   0.0360844   0.0000000), wk =   0.0052083
        k(   27) = (   0.0208333   0.0601407   0.0000000), wk =   0.0104167
        k(   28) = (   0.0208333   0.0841969   0.0000000), wk =   0.0104167
        k(   29) = (   0.0208333   0.1082532   0.0000000), wk =   0.0104167
        k(   30) = (   0.0208333   0.1323094   0.0000000), wk =   0.0104167
        k(   31) = (   0.0208333   0.1563657   0.0000000), wk =   0.0104167
        k(   32) = (   0.0208333   0.1804220   0.0000000), wk =   0.0104167
        k(   33) = (   0.0208333   0.2044782   0.0000000), wk =   0.0104167
        k(   34) = (   0.0208333   0.2285345   0.0000000), wk =   0.0104167
        k(   35) = (   0.0208333   0.2525907   0.0000000), wk =   0.0104167
        k(   36) = (   0.0208333   0.2766470   0.0000000), wk =   0.0104167
        k(   37) = (   0.0208333   0.3007033   0.0000000), wk =   0.0104167
        k(   38) = (   0.0208333   0.3247595   0.0000000), wk =   0.0104167
        k(   39) = (   0.0208333   0.3488158   0.0000000), wk =   0.0104167
        k(   40) = (   0.0208333   0.3728720   0.0000000), wk =   0.0104167
        k(   41) = (   0.0208333   0.3969283   0.0000000), wk =   0.0104167
        k(   42) = (   0.0208333   0.4209846   0.0000000), wk =   0.0104167
        k(   43) = (   0.0208333   0.4450408   0.0000000), wk =   0.0104167
        k(   44) = (   0.0208333   0.4690971   0.0000000), wk =   0.0104167
        k(   45) = (   0.0208333   0.4931534   0.0000000), wk =   0.0104167
        k(   46) = (   0.0208333   0.5172096   0.0000000), wk =   0.0104167
        k(   47) = (   0.0208333   0.5412659   0.0000000), wk =   0.0104167
        k(   48) = (   0.0208333   0.5653221   0.0000000), wk =   0.0104167
        k(   49) = (   0.0416667   0.0721688   0.0000000), wk =   0.0052083
        k(   50) = (   0.0416667   0.0962250   0.0000000), wk =   0.0104167
        k(   51) = (   0.0416667   0.1202813   0.0000000), wk =   0.0104167
        k(   52) = (   0.0416667   0.1443376   0.0000000), wk =   0.0104167
        k(   53) = (   0.0416667   0.1683938   0.0000000), wk =   0.0104167
        k(   54) = (   0.0416667   0.1924501   0.0000000), wk =   0.0104167
        k(   55) = (   0.0416667   0.2165064   0.0000000), wk =   0.0104167
        k(   56) = (   0.0416667   0.2405626   0.0000000), wk =   0.0104167
        k(   57) = (   0.0416667   0.2646189   0.0000000), wk =   0.0104167
        k(   58) = (   0.0416667   0.2886751   0.0000000), wk =   0.0104167
        k(   59) = (   0.0416667   0.3127314   0.0000000), wk =   0.0104167
        k(   60) = (   0.0416667   0.3367877   0.0000000), wk =   0.0104167
        k(   61) = (   0.0416667   0.3608439   0.0000000), wk =   0.0104167
        k(   62) = (   0.0416667   0.3849002   0.0000000), wk =   0.0104167
        k(   63) = (   0.0416667   0.4089564   0.0000000), wk =   0.0104167
        k(   64) = (   0.0416667   0.4330127   0.0000000), wk =   0.0104167
        k(   65) = (   0.0416667   0.4570690   0.0000000), wk =   0.0104167
        k(   66) = (   0.0416667   0.4811252   0.0000000), wk =   0.0104167
        k(   67) = (   0.0416667   0.5051815   0.0000000), wk =   0.0104167
        k(   68) = (   0.0416667   0.5292377   0.0000000), wk =   0.0104167
        k(   69) = (   0.0416667   0.5532940   0.0000000), wk =   0.0104167
        k(   70) = (   0.0416667   0.5773503   0.0000000), wk =   0.0052083
        k(   71) = (   0.0625000   0.1082532   0.0000000), wk =   0.0052083
        k(   72) = (   0.0625000   0.1323094   0.0000000), wk =   0.0104167
        k(   73) = (   0.0625000   0.1563657   0.0000000), wk =   0.0104167
        k(   74) = (   0.0625000   0.1804220   0.0000000), wk =   0.0104167
        k(   75) = (   0.0625000   0.2044782   0.0000000), wk =   0.0104167
        k(   76) = (   0.0625000   0.2285345   0.0000000), wk =   0.0104167
        k(   77) = (   0.0625000   0.2525907   0.0000000), wk =   0.0104167
        k(   78) = (   0.0625000   0.2766470   0.0000000), wk =   0.0104167
        k(   79) = (   0.0625000   0.3007033   0.0000000), wk =   0.0104167
        k(   80) = (   0.0625000   0.3247595   0.0000000), wk =   0.0104167
        k(   81) = (   0.0625000   0.3488158   0.0000000), wk =   0.0104167
        k(   82) = (   0.0625000   0.3728720   0.0000000), wk =   0.0104167
        k(   83) = (   0.0625000   0.3969283   0.0000000), wk =   0.0104167
        k(   84) = (   0.0625000   0.4209846   0.0000000), wk =   0.0104167
        k(   85) = (   0.0625000   0.4450408   0.0000000), wk =   0.0104167
        k(   86) = (   0.0625000   0.4690971   0.0000000), wk =   0.0104167
        k(   87) = (   0.0625000   0.4931534   0.0000000), wk =   0.0104167
        k(   88) = (   0.0625000   0.5172096   0.0000000), wk =   0.0104167
        k(   89) = (   0.0625000   0.5412659   0.0000000), wk =   0.0104167
        k(   90) = (   0.0625000   0.5653221   0.0000000), wk =   0.0104167
        k(   91) = (   0.0833333   0.1443376   0.0000000), wk =   0.0052083
        k(   92) = (   0.0833333   0.1683938   0.0000000), wk =   0.0104167
        k(   93) = (   0.0833333   0.1924501   0.0000000), wk =   0.0104167
        k(   94) = (   0.0833333   0.2165064   0.0000000), wk =   0.0104167
        k(   95) = (   0.0833333   0.2405626   0.0000000), wk =   0.0104167
        k(   96) = (   0.0833333   0.2646189   0.0000000), wk =   0.0104167
        k(   97) = (   0.0833333   0.2886751   0.0000000), wk =   0.0104167
        k(   98) = (   0.0833333   0.3127314   0.0000000), wk =   0.0104167
        k(   99) = (   0.0833333   0.3367877   0.0000000), wk =   0.0104167
        k(  100) = (   0.0833333   0.3608439   0.0000000), wk =   0.0104167
        k(  101) = (   0.0833333   0.3849002   0.0000000), wk =   0.0104167
        k(  102) = (   0.0833333   0.4089564   0.0000000), wk =   0.0104167
        k(  103) = (   0.0833333   0.4330127   0.0000000), wk =   0.0104167
        k(  104) = (   0.0833333   0.4570690   0.0000000), wk =   0.0104167
        k(  105) = (   0.0833333   0.4811252   0.0000000), wk =   0.0104167
        k(  106) = (   0.0833333   0.5051815   0.0000000), wk =   0.0104167
        k(  107) = (   0.0833333   0.5292377   0.0000000), wk =   0.0104167
        k(  108) = (   0.0833333   0.5532940   0.0000000), wk =   0.0104167
        k(  109) = (   0.0833333   0.5773503   0.0000000), wk =   0.0052083
        k(  110) = (   0.1041667   0.1804220   0.0000000), wk =   0.0052083
        k(  111) = (   0.1041667   0.2044782   0.0000000), wk =   0.0104167
        k(  112) = (   0.1041667   0.2285345   0.0000000), wk =   0.0104167
        k(  113) = (   0.1041667   0.2525907   0.0000000), wk =   0.0104167
        k(  114) = (   0.1041667   0.2766470   0.0000000), wk =   0.0104167
        k(  115) = (   0.1041667   0.3007033   0.0000000), wk =   0.0104167
        k(  116) = (   0.1041667   0.3247595   0.0000000), wk =   0.0104167
        k(  117) = (   0.1041667   0.3488158   0.0000000), wk =   0.0104167
        k(  118) = (   0.1041667   0.3728720   0.0000000), wk =   0.0104167
        k(  119) = (   0.1041667   0.3969283   0.0000000), wk =   0.0104167
        k(  120) = (   0.1041667   0.4209846   0.0000000), wk =   0.0104167
        k(  121) = (   0.1041667   0.4450408   0.0000000), wk =   0.0104167
        k(  122) = (   0.1041667   0.4690971   0.0000000), wk =   0.0104167
        k(  123) = (   0.1041667   0.4931534   0.0000000), wk =   0.0104167
        k(  124) = (   0.1041667   0.5172096   0.0000000), wk =   0.0104167
        k(  125) = (   0.1041667   0.5412659   0.0000000), wk =   0.0104167
        k(  126) = (   0.1041667   0.5653221   0.0000000), wk =   0.0104167
        k(  127) = (   0.1250000   0.2165064   0.0000000), wk =   0.0052083
        k(  128) = (   0.1250000   0.2405626   0.0000000), wk =   0.0104167
        k(  129) = (   0.1250000   0.2646189   0.0000000), wk =   0.0104167
        k(  130) = (   0.1250000   0.2886751   0.0000000), wk =   0.0104167
        k(  131) = (   0.1250000   0.3127314   0.0000000), wk =   0.0104167
        k(  132) = (   0.1250000   0.3367877   0.0000000), wk =   0.0104167
        k(  133) = (   0.1250000   0.3608439   0.0000000), wk =   0.0104167
        k(  134) = (   0.1250000   0.3849002   0.0000000), wk =   0.0104167
        k(  135) = (   0.1250000   0.4089564   0.0000000), wk =   0.0104167
        k(  136) = (   0.1250000   0.4330127   0.0000000), wk =   0.0104167
        k(  137) = (   0.1250000   0.4570690   0.0000000), wk =   0.0104167
        k(  138) = (   0.1250000   0.4811252   0.0000000), wk =   0.0104167
        k(  139) = (   0.1250000   0.5051815   0.0000000), wk =   0.0104167
        k(  140) = (   0.1250000   0.5292377   0.0000000), wk =   0.0104167
        k(  141) = (   0.1250000   0.5532940   0.0000000), wk =   0.0104167
        k(  142) = (   0.1250000   0.5773503   0.0000000), wk =   0.0052083
        k(  143) = (   0.1458333   0.2525907   0.0000000), wk =   0.0052083
        k(  144) = (   0.1458333   0.2766470   0.0000000), wk =   0.0104167
        k(  145) = (   0.1458333   0.3007033   0.0000000), wk =   0.0104167
        k(  146) = (   0.1458333   0.3247595   0.0000000), wk =   0.0104167
        k(  147) = (   0.1458333   0.3488158   0.0000000), wk =   0.0104167
        k(  148) = (   0.1458333   0.3728720   0.0000000), wk =   0.0104167
        k(  149) = (   0.1458333   0.3969283   0.0000000), wk =   0.0104167
        k(  150) = (   0.1458333   0.4209846   0.0000000), wk =   0.0104167
        k(  151) = (   0.1458333   0.4450408   0.0000000), wk =   0.0104167
        k(  152) = (   0.1458333   0.4690971   0.0000000), wk =   0.0104167
        k(  153) = (   0.1458333   0.4931534   0.0000000), wk =   0.0104167
        k(  154) = (   0.1458333   0.5172096   0.0000000), wk =   0.0104167
        k(  155) = (   0.1458333   0.5412659   0.0000000), wk =   0.0104167
        k(  156) = (   0.1458333   0.5653221   0.0000000), wk =   0.0104167
        k(  157) = (   0.1666667   0.2886751   0.0000000), wk =   0.0052083
        k(  158) = (   0.1666667   0.3127314   0.0000000), wk =   0.0104167
        k(  159) = (   0.1666667   0.3367877   0.0000000), wk =   0.0104167
        k(  160) = (   0.1666667   0.3608439   0.0000000), wk =   0.0104167
        k(  161) = (   0.1666667   0.3849002   0.0000000), wk =   0.0104167
        k(  162) = (   0.1666667   0.4089564   0.0000000), wk =   0.0104167
        k(  163) = (   0.1666667   0.4330127   0.0000000), wk =   0.0104167
        k(  164) = (   0.1666667   0.4570690   0.0000000), wk =   0.0104167
        k(  165) = (   0.1666667   0.4811252   0.0000000), wk =   0.0104167
        k(  166) = (   0.1666667   0.5051815   0.0000000), wk =   0.0104167
        k(  167) = (   0.1666667   0.5292377   0.0000000), wk =   0.0104167
        k(  168) = (   0.1666667   0.5532940   0.0000000), wk =   0.0104167
        k(  169) = (   0.1666667   0.5773503   0.0000000), wk =   0.0052083
        k(  170) = (   0.1875000   0.3247595   0.0000000), wk =   0.0052083
        k(  171) = (   0.1875000   0.3488158   0.0000000), wk =   0.0104167
        k(  172) = (   0.1875000   0.3728720   0.0000000), wk =   0.0104167
        k(  173) = (   0.1875000   0.3969283   0.0000000), wk =   0.0104167
        k(  174) = (   0.1875000   0.4209846   0.0000000), wk =   0.0104167
        k(  175) = (   0.1875000   0.4450408   0.0000000), wk =   0.0104167
        k(  176) = (   0.1875000   0.4690971   0.0000000), wk =   0.0104167
        k(  177) = (   0.1875000   0.4931534   0.0000000), wk =   0.0104167
        k(  178) = (   0.1875000   0.5172096   0.0000000), wk =   0.0104167
        k(  179) = (   0.1875000   0.5412659   0.0000000), wk =   0.0104167
        k(  180) = (   0.1875000   0.5653221   0.0000000), wk =   0.0104167
        k(  181) = (   0.2083333   0.3608439   0.0000000), wk =   0.0052083
        k(  182) = (   0.2083333   0.3849002   0.0000000), wk =   0.0104167
        k(  183) = (   0.2083333   0.4089564   0.0000000), wk =   0.0104167
        k(  184) = (   0.2083333   0.4330127   0.0000000), wk =   0.0104167
        k(  185) = (   0.2083333   0.4570690   0.0000000), wk =   0.0104167
        k(  186) = (   0.2083333   0.4811252   0.0000000), wk =   0.0104167
        k(  187) = (   0.2083333   0.5051815   0.0000000), wk =   0.0104167
        k(  188) = (   0.2083333   0.5292377   0.0000000), wk =   0.0104167
        k(  189) = (   0.2083333   0.5532940   0.0000000), wk =   0.0104167
        k(  190) = (   0.2083333   0.5773503   0.0000000), wk =   0.0052083
        k(  191) = (   0.2291667   0.3969283   0.0000000), wk =   0.0052083
        k(  192) = (   0.2291667   0.4209846   0.0000000), wk =   0.0104167
        k(  193) = (   0.2291667   0.4450408   0.0000000), wk =   0.0104167
        k(  194) = (   0.2291667   0.4690971   0.0000000), wk =   0.0104167
        k(  195) = (   0.2291667   0.4931534   0.0000000), wk =   0.0104167
        k(  196) = (   0.2291667   0.5172096   0.0000000), wk =   0.0104167
        k(  197) = (   0.2291667   0.5412659   0.0000000), wk =   0.0104167
        k(  198) = (   0.2291667   0.5653221   0.0000000), wk =   0.0104167
        k(  199) = (   0.2500000   0.4330127   0.0000000), wk =   0.0052083
        k(  200) = (   0.2500000   0.4570690   0.0000000), wk =   0.0104167
        k(  201) = (   0.2500000   0.4811252   0.0000000), wk =   0.0104167
        k(  202) = (   0.2500000   0.5051815   0.0000000), wk =   0.0104167
        k(  203) = (   0.2500000   0.5292377   0.0000000), wk =   0.0104167
        k(  204) = (   0.2500000   0.5532940   0.0000000), wk =   0.0104167
        k(  205) = (   0.2500000   0.5773503   0.0000000), wk =   0.0052083
        k(  206) = (   0.2708333   0.4690971   0.0000000), wk =   0.0052083
        k(  207) = (   0.2708333   0.4931534   0.0000000), wk =   0.0104167
        k(  208) = (   0.2708333   0.5172096   0.0000000), wk =   0.0104167
        k(  209) = (   0.2708333   0.5412659   0.0000000), wk =   0.0104167
        k(  210) = (   0.2708333   0.5653221   0.0000000), wk =   0.0104167
        k(  211) = (   0.2916667   0.5051815   0.0000000), wk =   0.0052083
        k(  212) = (   0.2916667   0.5292377   0.0000000), wk =   0.0104167
        k(  213) = (   0.2916667   0.5532940   0.0000000), wk =   0.0104167
        k(  214) = (   0.2916667   0.5773503   0.0000000), wk =   0.0052083
        k(  215) = (   0.3125000   0.5412659   0.0000000), wk =   0.0052083
        k(  216) = (   0.3125000   0.5653221   0.0000000), wk =   0.0104167
        k(  217) = (   0.3333333   0.5773503   0.0000000), wk =   0.0017361

                       cryst. coord.
        k(    1) = (   0.0000000   0.0000000   0.0000000), wk =   0.0008681
        k(    2) = (   0.0000000   0.0208333   0.0000000), wk =   0.0052083
        k(    3) = (   0.0000000   0.0416667   0.0000000), wk =   0.0052083
        k(    4) = (   0.0000000   0.0625000   0.0000000), wk =   0.0052083
        k(    5) = (   0.0000000   0.0833333   0.0000000), wk =   0.0052083
        k(    6) = (   0.0000000   0.1041667   0.0000000), wk =   0.0052083
        k(    7) = (   0.0000000   0.1250000   0.0000000), wk =   0.0052083
        k(    8) = (   0.0000000   0.1458333   0.0000000), wk =   0.0052083
        k(    9) = (   0.0000000   0.1666667   0.0000000), wk =   0.0052083
        k(   10) = (   0.0000000   0.1875000   0.0000000), wk =   0.0052083
        k(   11) = (   0.0000000   0.2083333   0.0000000), wk =   0.0052083
        k(   12) = (   0.0000000   0.2291667   0.0000000), wk =   0.0052083
        k(   13) = (   0.0000000   0.2500000   0.0000000), wk =   0.0052083
        k(   14) = (   0.0000000   0.2708333   0.0000000), wk =   0.0052083
        k(   15) = (   0.0000000   0.2916667   0.0000000), wk =   0.0052083
        k(   16) = (   0.0000000   0.3125000   0.0000000), wk =   0.0052083
        k(   17) = (   0.0000000   0.3333333   0.0000000), wk =   0.0052083
        k(   18) = (   0.0000000   0.3541667   0.0000000), wk =   0.0052083
        k(   19) = (   0.0000000   0.3750000   0.0000000), wk =   0.0052083
        k(   20) = (   0.0000000   0.3958333   0.0000000), wk =   0.0052083
        k(   21) = (   0.0000000   0.4166667   0.0000000), wk =   0.0052083
        k(   22) = (   0.0000000   0.4375000   0.0000000), wk =   0.0052083
        k(   23) = (   0.0000000   0.4583333   0.0000000), wk =   0.0052083
        k(   24) = (   0.0000000   0.4791667   0.0000000), wk =   0.0052083
        k(   25) = (   0.0000000  -0.5000000   0.0000000), wk =   0.0026042
        k(   26) = (   0.0208333   0.0208333   0.0000000), wk =   0.0052083
        k(   27) = (   0.0208333   0.0416667   0.0000000), wk =   0.0104167
        k(   28) = (   0.0208333   0.0625000   0.0000000), wk =   0.0104167
        k(   29) = (   0.0208333   0.0833333   0.0000000), wk =   0.0104167
        k(   30) = (   0.0208333   0.1041667   0.0000000), wk =   0.0104167
        k(   31) = (   0.0208333   0.1250000   0.0000000), wk =   0.0104167
        k(   32) = (   0.0208333   0.1458333   0.0000000), wk =   0.0104167
        k(   33) = (   0.0208333   0.1666667   0.0000000), wk =   0.0104167
        k(   34) = (   0.0208333   0.1875000   0.0000000), wk =   0.0104167
        k(   35) = (   0.0208333   0.2083333   0.0000000), wk =   0.0104167
        k(   36) = (   0.0208333   0.2291667   0.0000000), wk =   0.0104167
        k(   37) = (   0.0208333   0.2500000   0.0000000), wk =   0.0104167
        k(   38) = (   0.0208333   0.2708333   0.0000000), wk =   0.0104167
        k(   39) = (   0.0208333   0.2916667   0.0000000), wk =   0.0104167
        k(   40) = (   0.0208333   0.3125000   0.0000000), wk =   0.0104167
        k(   41) = (   0.0208333   0.3333333   0.0000000), wk =   0.0104167
        k(   42) = (   0.0208333   0.3541667   0.0000000), wk =   0.0104167
        k(   43) = (   0.0208333   0.3750000   0.0000000), wk =   0.0104167
        k(   44) = (   0.0208333   0.3958333   0.0000000), wk =   0.0104167
        k(   45) = (   0.0208333   0.4166667   0.0000000), wk =   0.0104167
        k(   46) = (   0.0208333   0.4375000   0.0000000), wk =   0.0104167
        k(   47) = (   0.0208333   0.4583333   0.0000000), wk =   0.0104167
        k(   48) = (   0.0208333   0.4791667   0.0000000), wk =   0.0104167
        k(   49) = (   0.0416667   0.0416667   0.0000000), wk =   0.0052083
        k(   50) = (   0.0416667   0.0625000   0.0000000), wk =   0.0104167
        k(   51) = (   0.0416667   0.0833333   0.0000000), wk =   0.0104167
        k(   52) = (   0.0416667   0.1041667   0.0000000), wk =   0.0104167
        k(   53) = (   0.0416667   0.1250000   0.0000000), wk =   0.0104167
        k(   54) = (   0.0416667   0.1458333   0.0000000), wk =   0.0104167
        k(   55) = (   0.0416667   0.1666667   0.0000000), wk =   0.0104167
        k(   56) = (   0.0416667   0.1875000   0.0000000), wk =   0.0104167
        k(   57) = (   0.0416667   0.2083333   0.0000000), wk =   0.0104167
        k(   58) = (   0.0416667   0.2291667   0.0000000), wk =   0.0104167
        k(   59) = (   0.0416667   0.2500000   0.0000000), wk =   0.0104167
        k(   60) = (   0.0416667   0.2708333   0.0000000), wk =   0.0104167
        k(   61) = (   0.0416667   0.2916667   0.0000000), wk =   0.0104167
        k(   62) = (   0.0416667   0.3125000   0.0000000), wk =   0.0104167
        k(   63) = (   0.0416667   0.3333333   0.0000000), wk =   0.0104167
        k(   64) = (   0.0416667   0.3541667   0.0000000), wk =   0.0104167
        k(   65) = (   0.0416667   0.3750000   0.0000000), wk =   0.0104167
        k(   66) = (   0.0416667   0.3958333   0.0000000), wk =   0.0104167
        k(   67) = (   0.0416667   0.4166667   0.0000000), wk =   0.0104167
        k(   68) = (   0.0416667   0.4375000   0.0000000), wk =   0.0104167
        k(   69) = (   0.0416667   0.4583333   0.0000000), wk =   0.0104167
        k(   70) = (   0.0416667   0.4791667   0.0000000), wk =   0.0052083
        k(   71) = (   0.0625000   0.0625000   0.0000000), wk =   0.0052083
        k(   72) = (   0.0625000   0.0833333   0.0000000), wk =   0.0104167
        k(   73) = (   0.0625000   0.1041667   0.0000000), wk =   0.0104167
        k(   74) = (   0.0625000   0.1250000   0.0000000), wk =   0.0104167
        k(   75) = (   0.0625000   0.1458333   0.0000000), wk =   0.0104167
        k(   76) = (   0.0625000   0.1666667   0.0000000), wk =   0.0104167
        k(   77) = (   0.0625000   0.1875000   0.0000000), wk =   0.0104167
        k(   78) = (   0.0625000   0.2083333   0.0000000), wk =   0.0104167
        k(   79) = (   0.0625000   0.2291667   0.0000000), wk =   0.0104167
        k(   80) = (   0.0625000   0.2500000   0.0000000), wk =   0.0104167
        k(   81) = (   0.0625000   0.2708333   0.0000000), wk =   0.0104167
        k(   82) = (   0.0625000   0.2916667   0.0000000), wk =   0.0104167
        k(   83) = (   0.0625000   0.3125000   0.0000000), wk =   0.0104167
        k(   84) = (   0.0625000   0.3333333   0.0000000), wk =   0.0104167
        k(   85) = (   0.0625000   0.3541667   0.0000000), wk =   0.0104167
        k(   86) = (   0.0625000   0.3750000   0.0000000), wk =   0.0104167
        k(   87) = (   0.0625000   0.3958333   0.0000000), wk =   0.0104167
        k(   88) = (   0.0625000   0.4166667   0.0000000), wk =   0.0104167
        k(   89) = (   0.0625000   0.4375000   0.0000000), wk =   0.0104167
        k(   90) = (   0.0625000   0.4583333   0.0000000), wk =   0.0104167
        k(   91) = (   0.0833333   0.0833333   0.0000000), wk =   0.0052083
        k(   92) = (   0.0833333   0.1041667   0.0000000), wk =   0.0104167
        k(   93) = (   0.0833333   0.1250000   0.0000000), wk =   0.0104167
        k(   94) = (   0.0833333   0.1458333   0.0000000), wk =   0.0104167
        k(   95) = (   0.0833333   0.1666667   0.0000000), wk =   0.0104167
        k(   96) = (   0.0833333   0.1875000   0.0000000), wk =   0.0104167
        k(   97) = (   0.0833333   0.2083333   0.0000000), wk =   0.0104167
        k(   98) = (   0.0833333   0.2291667   0.0000000), wk =   0.0104167
        k(   99) = (   0.0833333   0.2500000   0.0000000), wk =   0.0104167
        k(  100) = (   0.0833333   0.2708333   0.0000000), wk =   0.0104167
        k(  101) = (   0.0833333   0.2916667   0.0000000), wk =   0.0104167
        k(  102) = (   0.0833333   0.3125000   0.0000000), wk =   0.0104167
        k(  103) = (   0.0833333   0.3333333   0.0000000), wk =   0.0104167
        k(  104) = (   0.0833333   0.3541667   0.0000000), wk =   0.0104167
        k(  105) = (   0.0833333   0.3750000   0.0000000), wk =   0.0104167
        k(  106) = (   0.0833333   0.3958333   0.0000000), wk =   0.0104167
        k(  107) = (   0.0833333   0.4166667   0.0000000), wk =   0.0104167
        k(  108) = (   0.0833333   0.4375000   0.0000000), wk =   0.0104167
        k(  109) = (   0.0833333   0.4583333   0.0000000), wk =   0.0052083
        k(  110) = (   0.1041667   0.1041667   0.0000000), wk =   0.0052083
        k(  111) = (   0.1041667   0.1250000   0.0000000), wk =   0.0104167
        k(  112) = (   0.1041667   0.1458333   0.0000000), wk =   0.0104167
        k(  113) = (   0.1041667   0.1666667   0.0000000), wk =   0.0104167
        k(  114) = (   0.1041667   0.1875000   0.0000000), wk =   0.0104167
        k(  115) = (   0.1041667   0.2083333   0.0000000), wk =   0.0104167
        k(  116) = (   0.1041667   0.2291667   0.0000000), wk =   0.0104167
        k(  117) = (   0.1041667   0.2500000   0.0000000), wk =   0.0104167
        k(  118) = (   0.1041667   0.2708333   0.0000000), wk =   0.0104167
        k(  119) = (   0.1041667   0.2916667   0.0000000), wk =   0.0104167
        k(  120) = (   0.1041667   0.3125000   0.0000000), wk =   0.0104167
        k(  121) = (   0.1041667   0.3333333   0.0000000), wk =   0.0104167
        k(  122) = (   0.1041667   0.3541667   0.0000000), wk =   0.0104167
        k(  123) = (   0.1041667   0.3750000   0.0000000), wk =   0.0104167
        k(  124) = (   0.1041667   0.3958333   0.0000000), wk =   0.0104167
        k(  125) = (   0.1041667   0.4166667   0.0000000), wk =   0.0104167
        k(  126) = (   0.1041667   0.4375000   0.0000000), wk =   0.0104167
        k(  127) = (   0.1250000   0.1250000   0.0000000), wk =   0.0052083
        k(  128) = (   0.1250000   0.1458333   0.0000000), wk =   0.0104167
        k(  129) = (   0.1250000   0.1666667   0.0000000), wk =   0.0104167
        k(  130) = (   0.1250000   0.1875000   0.0000000), wk =   0.0104167
        k(  131) = (   0.1250000   0.2083333   0.0000000), wk =   0.0104167
        k(  132) = (   0.1250000   0.2291667   0.0000000), wk =   0.0104167
        k(  133) = (   0.1250000   0.2500000   0.0000000), wk =   0.0104167
        k(  134) = (   0.1250000   0.2708333   0.0000000), wk =   0.0104167
        k(  135) = (   0.1250000   0.2916667   0.0000000), wk =   0.0104167
        k(  136) = (   0.1250000   0.3125000   0.0000000), wk =   0.0104167
        k(  137) = (   0.1250000   0.3333333   0.0000000), wk =   0.0104167
        k(  138) = (   0.1250000   0.3541667   0.0000000), wk =   0.0104167
        k(  139) = (   0.1250000   0.3750000   0.0000000), wk =   0.0104167
        k(  140) = (   0.1250000   0.3958333   0.0000000), wk =   0.0104167
        k(  141) = (   0.1250000   0.4166667   0.0000000), wk =   0.0104167
        k(  142) = (   0.1250000   0.4375000   0.0000000), wk =   0.0052083
        k(  143) = (   0.1458333   0.1458333   0.0000000), wk =   0.0052083
        k(  144) = (   0.1458333   0.1666667   0.0000000), wk =   0.0104167
        k(  145) = (   0.1458333   0.1875000   0.0000000), wk =   0.0104167
        k(  146) = (   0.1458333   0.2083333   0.0000000), wk =   0.0104167
        k(  147) = (   0.1458333   0.2291667   0.0000000), wk =   0.0104167
        k(  148) = (   0.1458333   0.2500000   0.0000000), wk =   0.0104167
        k(  149) = (   0.1458333   0.2708333   0.0000000), wk =   0.0104167
        k(  150) = (   0.1458333   0.2916667   0.0000000), wk =   0.0104167
        k(  151) = (   0.1458333   0.3125000   0.0000000), wk =   0.0104167
        k(  152) = (   0.1458333   0.3333333   0.0000000), wk =   0.0104167
        k(  153) = (   0.1458333   0.3541667   0.0000000), wk =   0.0104167
        k(  154) = (   0.1458333   0.3750000   0.0000000), wk =   0.0104167
        k(  155) = (   0.1458333   0.3958333   0.0000000), wk =   0.0104167
        k(  156) = (   0.1458333   0.4166667   0.0000000), wk =   0.0104167
        k(  157) = (   0.1666667   0.1666667   0.0000000), wk =   0.0052083
        k(  158) = (   0.1666667   0.1875000   0.0000000), wk =   0.0104167
        k(  159) = (   0.1666667   0.2083333   0.0000000), wk =   0.0104167
        k(  160) = (   0.1666667   0.2291667   0.0000000), wk =   0.0104167
        k(  161) = (   0.1666667   0.2500000   0.0000000), wk =   0.0104167
        k(  162) = (   0.1666667   0.2708333   0.0000000), wk =   0.0104167
        k(  163) = (   0.1666667   0.2916667   0.0000000), wk =   0.0104167
        k(  164) = (   0.1666667   0.3125000   0.0000000), wk =   0.0104167
        k(  165) = (   0.1666667   0.3333333   0.0000000), wk =   0.0104167
        k(  166) = (   0.1666667   0.3541667   0.0000000), wk =   0.0104167
        k(  167) = (   0.1666667   0.3750000   0.0000000), wk =   0.0104167
        k(  168) = (   0.1666667   0.3958333   0.0000000), wk =   0.0104167
        k(  169) = (   0.1666667   0.4166667   0.0000000), wk =   0.0052083
        k(  170) = (   0.1875000   0.1875000   0.0000000), wk =   0.0052083
        k(  171) = (   0.1875000   0.2083333   0.0000000), wk =   0.0104167
        k(  172) = (   0.1875000   0.2291667   0.0000000), wk =   0.0104167
        k(  173) = (   0.1875000   0.2500000   0.0000000), wk =   0.0104167
        k(  174) = (   0.1875000   0.2708333   0.0000000), wk =   0.0104167
        k(  175) = (   0.1875000   0.2916667   0.0000000), wk =   0.0104167
        k(  176) = (   0.1875000   0.3125000   0.0000000), wk =   0.0104167
        k(  177) = (   0.1875000   0.3333333   0.0000000), wk =   0.0104167
        k(  178) = (   0.1875000   0.3541667   0.0000000), wk =   0.0104167
        k(  179) = (   0.1875000   0.3750000   0.0000000), wk =   0.0104167
        k(  180) = (   0.1875000   0.3958333   0.0000000), wk =   0.0104167
        k(  181) = (   0.2083333   0.2083333   0.0000000), wk =   0.0052083
        k(  182) = (   0.2083333   0.2291667   0.0000000), wk =   0.0104167
        k(  183) = (   0.2083333   0.2500000   0.0000000), wk =   0.0104167
        k(  184) = (   0.2083333   0.2708333   0.0000000), wk =   0.0104167
        k(  185) = (   0.2083333   0.2916667   0.0000000), wk =   0.0104167
        k(  186) = (   0.2083333   0.3125000   0.0000000), wk =   0.0104167
        k(  187) = (   0.2083333   0.3333333   0.0000000), wk =   0.0104167
        k(  188) = (   0.2083333   0.3541667   0.0000000), wk =   0.0104167
        k(  189) = (   0.2083333   0.3750000   0.0000000), wk =   0.0104167
        k(  190) = (   0.2083333   0.3958333   0.0000000), wk =   0.0052083
        k(  191) = (   0.2291667   0.2291667   0.0000000), wk =   0.0052083
        k(  192) = (   0.2291667   0.2500000   0.0000000), wk =   0.0104167
        k(  193) = (   0.2291667   0.2708333   0.0000000), wk =   0.0104167
        k(  194) = (   0.2291667   0.2916667   0.0000000), wk =   0.0104167
        k(  195) = (   0.2291667   0.3125000   0.0000000), wk =   0.0104167
        k(  196) = (   0.2291667   0.3333333   0.0000000), wk =   0.0104167
        k(  197) = (   0.2291667   0.3541667   0.0000000), wk =   0.0104167
        k(  198) = (   0.2291667   0.3750000   0.0000000), wk =   0.0104167
        k(  199) = (   0.2500000   0.2500000   0.0000000), wk =   0.0052083
        k(  200) = (   0.2500000   0.2708333   0.0000000), wk =   0.0104167
        k(  201) = (   0.2500000   0.2916667   0.0000000), wk =   0.0104167
        k(  202) = (   0.2500000   0.3125000   0.0000000), wk =   0.0104167
        k(  203) = (   0.2500000   0.3333333   0.0000000), wk =   0.0104167
        k(  204) = (   0.2500000   0.3541667   0.0000000), wk =   0.0104167
        k(  205) = (   0.2500000   0.3750000   0.0000000), wk =   0.0052083
        k(  206) = (   0.2708333   0.2708333   0.0000000), wk =   0.0052083
        k(  207) = (   0.2708333   0.2916667   0.0000000), wk =   0.0104167
        k(  208) = (   0.2708333   0.3125000   0.0000000), wk =   0.0104167
        k(  209) = (   0.2708333   0.3333333   0.0000000), wk =   0.0104167
        k(  210) = (   0.2708333   0.3541667   0.0000000), wk =   0.0104167
        k(  211) = (   0.2916667   0.2916667   0.0000000), wk =   0.0052083
        k(  212) = (   0.2916667   0.3125000   0.0000000), wk =   0.0104167
        k(  213) = (   0.2916667   0.3333333   0.0000000), wk =   0.0104167
        k(  214) = (   0.2916667   0.3541667   0.0000000), wk =   0.0052083
        k(  215) = (   0.3125000   0.3125000   0.0000000), wk =   0.0052083
        k(  216) = (   0.3125000   0.3333333   0.0000000), wk =   0.0104167
        k(  217) = (   0.3333333   0.3333333   0.0000000), wk =   0.0017361

     Dense  grid:    96043 G-vectors     FFT dimensions: (  30,  30, 250)

     Smooth grid:    34107 G-vectors     FFT dimensions: (  24,  24, 180)

     Dynamical RAM for                 wfc:       0.13 MB

     Dynamical RAM for     wfc (w. buffer):      28.26 MB

     Dynamical RAM for           str. fact:       0.73 MB

     Dynamical RAM for           local pot:       0.00 MB

     Dynamical RAM for          nlocal pot:       0.52 MB

     Dynamical RAM for                qrad:       0.46 MB

     Dynamical RAM for          rho,v,vnew:       4.77 MB

     Dynamical RAM for               rhoin:       1.59 MB

     Dynamical RAM for            rho*nmix:      11.72 MB

     Dynamical RAM for           G-vectors:       2.88 MB

     Dynamical RAM for          h,s,v(r/c):       0.00 MB

     Dynamical RAM for          <psi|beta>:       0.00 MB

     Dynamical RAM for                 psi:       0.26 MB

     Dynamical RAM for                hpsi:       0.26 MB

     Dynamical RAM for                spsi:       0.26 MB

     Dynamical RAM for      wfcinit/wfcrot:       0.52 MB

     Dynamical RAM for           addusdens:      32.97 MB

     Dynamical RAM for          addusforce:      34.80 MB

     Dynamical RAM for         addusstress:      36.63 MB

     Estimated static dynamical RAM per process >      44.97 MB

     Estimated max dynamical RAM per process >      93.33 MB

     Estimated total dynamical RAM >     186.65 MB

     Check: negative core charge=   -0.000002

     Initial potential from superposition of free atoms

     starting charge       7.9999, renormalised to       8.0000

     negative rho (up, down):  1.068E-04 0.000E+00
     Starting wfcs are    8 randomized atomic wfcs
     Checking if some PAW data can be deallocated... 

     total cpu time spent up to now is       40.2 secs

     per-process dynamical memory:    59.7 Mb

     Self-consistent Calculation

     iteration #  1     ecut=    50.00 Ry     beta= 0.30
     Davidson diagonalization with overlap

---- Real-time Memory Report at c_bands before calling an iterative solver
            85 MiB given to the printing process from OS
            58 MiB allocation reported by mallinfo(arena+hblkhd)
          1037 MiB available memory on the node where the printing process lives
------------------
     ethr =  1.00E-02,  avg # of iterations =  2.0

     negative rho (up, down):  1.073E-04 0.000E+00

     total cpu time spent up to now is      137.0 secs

          k = 0.0000 0.0000 0.0000     band energies (ev):

   -26.1337 -13.2027 -10.4476 -10.4476

     occupation numbers 
     1.0000   1.0000   1.0000   1.0000

          k = 0.0000 0.0241 0.0000     band energies (ev):

   -26.1236 -13.1908 -10.4865 -10.4683

     occupation numbers 
     1.0000   1.0000   1.0000   1.0000

          k = 0.0000 0.0481 0.0000     band energies (ev):

   -26.0935 -13.1559 -10.6019 -10.5294

     occupation numbers 
     1.0000   1.0000   1.0000   1.0000

          k = 0.0000 0.0722 0.0000     band energies (ev):

   -26.0434 -13.0961 -10.7896 -10.6278

     occupation numbers 
     1.0000   1.0000   1.0000   1.0000

          k = 0.0000 0.0962 0.0000     band energies (ev):

   -25.9733 -13.0141 -11.0433 -10.7590

     occupation numbers 
     1.0000   1.0000   1.0000   1.0000

          k = 0.0000 0.1203 0.0000     band energies (ev):

   -25.8835 -12.9086 -11.3555 -10.9175

     occupation numbers 
     1.0000   1.0000   1.0000   1.0000

          k = 0.0000 0.1443 0.0000     band energies (ev):

   -25.7740 -12.7796 -11.7179 -11.0974

     occupation numbers 
     1.0000   1.0000   1.0000   1.0000

          k = 0.0000 0.1684 0.0000     band energies (ev):

   -25.6451 -12.6281 -12.1225 -11.2928

     occupation numbers 
     1.0000   1.0000   1.0000   1.0000

          k = 0.0000 0.1925 0.0000     band energies (ev):

   -25.4965 -12.5615 -12.4534 -11.4985

     occupation numbers 
     1.0000   1.0000   1.0000   1.0000

          k = 0.0000 0.2165 0.0000     band energies (ev):

   -25.3292 -13.0279 -12.2574 -11.7091

     occupation numbers 
     1.0000   1.0000   1.0000   1.0000

          k = 0.0000 0.2406 0.0000     band energies (ev):

   -25.1426 -13.5153 -12.0397 -11.9207

     occupation numbers 
     1.0000   1.0000   1.0000   1.0000

          k = 0.0000 0.2646 0.0000     band energies (ev):

   -24.9369 -14.0184 -12.1292 -11.8011

     occupation numbers 
     1.0000   1.0000   1.0000   1.0000

          k = 0.0000 0.2887 0.0000     band energies (ev):

   -24.7123 -14.5322 -12.3316 -11.5426

     occupation numbers 
     1.0000   1.0000   1.0000   1.0000

          k = 0.0000 0.3127 0.0000     band energies (ev):

   -24.4697 -15.0526 -12.5253 -11.2644

     occupation numbers 
     1.0000   1.0000   1.0000   1.0000

          k = 0.0000 0.3368 0.0000     band energies (ev):

   -24.2084 -15.5769 -12.7080 -10.9692

     occupation numbers 
     1.0000   1.0000   1.0000   1.0000

          k = 0.0000 0.3608 0.0000     band energies (ev):

   -23.9302 -16.1003 -12.8778 -10.6578

     occupation numbers 
     1.0000   1.0000   1.0000   1.0000

          k = 0.0000 0.3849 0.0000     band energies (ev):

   -23.6340 -16.6205 -13.0332 -10.3334

     occupation numbers 
     1.0000   1.0000   1.0000   1.0000

          k = 0.0000 0.4090 0.0000     band energies (ev):

   -23.3218 -17.1359 -13.1727  -9.9990

     occupation numbers 
     1.0000   1.0000   1.0000   1.0000

          k = 0.0000 0.4330 0.0000     band energies (ev):

   -22.9928 -17.6428 -13.2958  -9.6592

     occupation numbers 
     1.0000   1.0000   1.0000   1.0000

          k = 0.0000 0.4571 0.0000     band energies (ev):

   -22.6498 -18.1387 -13.4010  -9.3215

     occupation numbers 
     1.0000   1.0000   1.0000   1.0000

          k = 0.0000 0.4811 0.0000     band energies (ev):

   -22.2950 -18.6206 -13.4879  -8.9962

     occupation numbers 
     1.0000   1.0000   1.0000   1.0000

          k = 0.0000 0.5052 0.0000     band energies (ev):

   -21.9326 -19.0823 -13.5562  -8.6989

     occupation numbers 
     1.0000   1.0000   1.0000   1.0000

          k = 0.0000 0.5292 0.0000     band energies (ev):

   -21.5746 -19.5110 -13.6051  -8.4525

     occupation numbers 
     1.0000   1.0000   1.0000   1.0000

          k = 0.0000 0.5533 0.0000     band energies (ev):

   -21.2594 -19.8700 -13.6346  -8.2855

     occupation numbers 
     1.0000   1.0000   1.0000   1.0000

          k = 0.0000-0.5774 0.0000     band energies (ev):

   -21.1087 -20.0347 -13.6444  -8.2258

     occupation numbers 
     1.0000   1.0000   1.0000   1.0000

          k = 0.0208 0.0361 0.0000     band energies (ev):

   -26.1035 -13.1673 -10.5632 -10.5097

     occupation numbers 
     1.0000   1.0000   1.0000   1.0000

          k = 0.0208 0.0601 0.0000     band energies (ev):

   -26.0634 -13.1205 -10.7133 -10.5909

     occupation numbers 
     1.0000   1.0000   1.0000   1.0000

          k = 0.0208 0.0842 0.0000     band energies (ev):

   -26.0034 -13.0496 -10.9320 -10.7077

     occupation numbers 
     1.0000   1.0000   1.0000   1.0000

          k = 0.0208 0.1083 0.0000     band energies (ev):

   -25.9235 -12.9552 -11.2128 -10.8548

     occupation numbers 
     1.0000   1.0000   1.0000   1.0000

          k = 0.0208 0.1323 0.0000     band energies (ev):

   -25.8238 -12.8383 -11.5478 -11.0263

     occupation numbers 
     1.0000   1.0000   1.0000   1.0000

          k = 0.0208 0.1564 0.0000     band energies (ev):

   -25.7046 -12.6981 -11.9291 -11.2163

     occupation numbers 
     1.0000   1.0000   1.0000   1.0000

          k = 0.0208 0.1804 0.0000     band energies (ev):

   -25.5659 -12.5347 -12.3487 -11.4189

     occupation numbers 
     1.0000   1.0000   1.0000   1.0000

          k = 0.0208 0.2045 0.0000     band energies (ev):

   -25.4080 -12.7996 -12.3497 -11.6288

     occupation numbers 
     1.0000   1.0000   1.0000   1.0000

          k = 0.0208 0.2285 0.0000     band energies (ev):

   -25.2302 -13.2750 -12.1430 -11.8415

     occupation numbers 
     1.0000   1.0000   1.0000   1.0000

          k = 0.0208 0.2526 0.0000     band energies (ev):

   -25.0346 -13.7686 -12.0529 -11.9148

     occupation numbers 
     1.0000   1.0000   1.0000   1.0000

          k = 0.0208 0.2766 0.0000     band energies (ev):

   -24.8197 -14.2762 -12.2596 -11.6658

     occupation numbers 
     1.0000   1.0000   1.0000   1.0000

          k = 0.0208 0.3007 0.0000     band energies (ev):

   -24.5861 -14.7923 -12.4587 -11.3972

     occupation numbers 
     1.0000   1.0000   1.0000   1.0000

          k = 0.0208 0.3248 0.0000     band energies (ev):

   -24.3346 -15.3138 -12.6476 -11.1106

     occupation numbers 
     1.0000   1.0000   1.0000   1.0000

          k = 0.0208 0.3488 0.0000     band energies (ev):

   -24.0644 -15.8368 -12.8244 -10.8070

     occupation numbers 
     1.0000   1.0000   1.0000   1.0000

          k = 0.0208 0.3729 0.0000     band energies (ev):

   -23.7772 -16.3587 -12.9874 -10.4887

     occupation numbers 
     1.0000   1.0000   1.0000   1.0000

          k = 0.0208 0.3969 0.0000     band energies (ev):

   -23.4731 -16.8757 -13.1356 -10.1589

     occupation numbers 
     1.0000   1.0000   1.0000   1.0000

          k = 0.0208 0.4210 0.0000     band energies (ev):

   -23.1521 -17.3864 -13.2670  -9.8211

     occupation numbers 
     1.0000   1.0000   1.0000   1.0000

          k = 0.0208 0.4450 0.0000     band energies (ev):

   -22.8161 -17.8875 -13.3813  -9.4813

     occupation numbers 
     1.0000   1.0000   1.0000   1.0000

          k = 0.0208 0.4691 0.0000     band energies (ev):

   -22.4669 -18.3764 -13.4777  -9.1480

     occupation numbers 
     1.0000   1.0000   1.0000   1.0000

          k = 0.0208 0.4932 0.0000     band energies (ev):

   -22.1078 -18.8490 -13.5555  -8.8341

     occupation numbers 
     1.0000   1.0000   1.0000   1.0000

          k = 0.0208 0.5172 0.0000     band energies (ev):

   -21.7452 -19.2963 -13.6140  -8.5589

     occupation numbers 
     1.0000   1.0000   1.0000   1.0000

          k = 0.0208 0.5413 0.0000     band energies (ev):

   -21.4008 -19.6975 -13.6535  -8.3481

     occupation numbers 
     1.0000   1.0000   1.0000   1.0000

          k = 0.0208 0.5653 0.0000     band energies (ev):

   -21.1442 -19.9831 -13.6733  -8.2319

     occupation numbers 
     1.0000   1.0000   1.0000   1.0000

          k = 0.0417 0.0722 0.0000     band energies (ev):

   -26.0134 -13.0614 -10.8920 -10.6928

     occupation numbers 
     1.0000   1.0000   1.0000   1.0000

          k = 0.0417 0.0962 0.0000     band energies (ev):

   -25.9433 -12.9792 -11.1337 -10.8297

     occupation numbers 
     1.0000   1.0000   1.0000   1.0000

          k = 0.0417 0.1203 0.0000     band energies (ev):

   -25.8538 -12.8732 -11.4322 -10.9948

     occupation numbers 
     1.0000   1.0000   1.0000   1.0000

          k = 0.0417 0.1443 0.0000     band energies (ev):

   -25.7444 -12.7445 -11.7810 -11.1815

     occupation numbers 
     1.0000   1.0000   1.0000   1.0000

          k = 0.0417 0.1684 0.0000     band energies (ev):

   -25.6155 -12.5933 -12.1727 -11.3834

     occupation numbers 
     1.0000   1.0000   1.0000   1.0000

          k = 0.0417 0.1925 0.0000     band energies (ev):

   -25.4670 -12.6000 -12.4188 -11.5948

     occupation numbers 
     1.0000   1.0000   1.0000   1.0000

          k = 0.0417 0.2165 0.0000     band energies (ev):

   -25.2995 -13.0558 -12.2232 -11.8106

     occupation numbers 
     1.0000   1.0000   1.0000   1.0000

          k = 0.0417 0.2406 0.0000     band energies (ev):

   -25.1132 -13.5342 -12.0264 -12.0054

     occupation numbers 
     1.0000   1.0000   1.0000   1.0000

          k = 0.0417 0.2646 0.0000     band energies (ev):

   -24.9071 -14.0300 -12.2386 -11.7671

     occupation numbers 
     1.0000   1.0000   1.0000   1.0000

          k = 0.0417 0.2887 0.0000     band energies (ev):

   -24.6834 -14.5374 -12.4441 -11.5081

     occupation numbers 
     1.0000   1.0000   1.0000   1.0000

          k = 0.0417 0.3127 0.0000     band energies (ev):

   -24.4408 -15.0527 -12.6402 -11.2310

     occupation numbers 
     1.0000   1.0000   1.0000   1.0000

          k = 0.0417 0.3368 0.0000     band energies (ev):

   -24.1801 -15.5718 -12.8250 -10.9357

     occupation numbers 
     1.0000   1.0000   1.0000   1.0000

          k = 0.0417 0.3608 0.0000     band energies (ev):

   -23.9016 -16.0913 -12.9963 -10.6247

     occupation numbers 
     1.0000   1.0000   1.0000   1.0000

          k = 0.0417 0.3849 0.0000     band energies (ev):

   -23.6056 -16.6089 -13.1529 -10.3002

     occupation numbers 
     1.0000   1.0000   1.0000   1.0000

          k = 0.0417 0.4090 0.0000     band energies (ev):

   -23.2933 -17.1212 -13.2937  -9.9658

     occupation numbers 
     1.0000   1.0000   1.0000   1.0000

          k = 0.0417 0.4330 0.0000     band energies (ev):

   -22.9652 -17.6255 -13.4172  -9.6259

     occupation numbers 
     1.0000   1.0000   1.0000   1.0000

          k = 0.0417 0.4571 0.0000     band energies (ev):

   -22.6220 -18.1198 -13.5231  -9.2879

     occupation numbers 
     1.0000   1.0000   1.0000   1.0000

          k = 0.0417 0.4811 0.0000     band energies (ev):

   -22.2675 -18.5996 -13.6108  -8.9621

     occupation numbers 
     1.0000   1.0000   1.0000   1.0000

          k = 0.0417 0.5052 0.0000     band energies (ev):

   -21.9061 -19.0606 -13.6791  -8.6643

     occupation numbers 
     1.0000   1.0000   1.0000   1.0000

          k = 0.0417 0.5292 0.0000     band energies (ev):

   -21.5488 -19.4878 -13.7284  -8.4170

     occupation numbers 
     1.0000   1.0000   1.0000   1.0000

          k = 0.0417 0.5533 0.0000     band energies (ev):

   -21.2337 -19.8458 -13.7579  -8.2494

     occupation numbers 
     1.0000   1.0000   1.0000   1.0000

          k = 0.0417 0.5774 0.0000     band energies (ev):

   -21.0833 -20.0104 -13.7678  -8.1893

     occupation numbers 
     1.0000   1.0000   1.0000   1.0000

          k = 0.0625 0.1083 0.0000     band energies (ev):

   -25.8636 -12.8852 -11.3901 -10.9876

     occupation numbers 
     1.0000   1.0000   1.0000   1.0000

          k = 0.0625 0.1323 0.0000     band energies (ev):

   -25.7640 -12.7685 -11.6975 -11.1729

     occupation numbers 
     1.0000   1.0000   1.0000   1.0000

          k = 0.0625 0.1564 0.0000     band energies (ev):

   -25.6453 -12.6279 -12.0509 -11.3773

     occupation numbers 
     1.0000   1.0000   1.0000   1.0000

          k = 0.0625 0.1804 0.0000     band energies (ev):

   -25.5063 -12.4656 -12.4442 -11.5939

     occupation numbers 
     1.0000   1.0000   1.0000   1.0000

          k = 0.0625 0.2045 0.0000     band energies (ev):

   -25.3492 -12.8715 -12.2804 -11.8162

     occupation numbers 
     1.0000   1.0000   1.0000   1.0000

          k = 0.0625 0.2285 0.0000     band energies (ev):

   -25.1716 -13.3261 -12.0737 -12.0397

     occupation numbers 
     1.0000   1.0000   1.0000   1.0000

          k = 0.0625 0.2526 0.0000     band energies (ev):

   -24.9763 -13.8026 -12.2603 -11.8459

     occupation numbers 
     1.0000   1.0000   1.0000   1.0000

          k = 0.0625 0.2766 0.0000     band energies (ev):

   -24.7611 -14.2951 -12.4743 -11.5977

     occupation numbers 
     1.0000   1.0000   1.0000   1.0000

          k = 0.0625 0.3007 0.0000     band energies (ev):

   -24.5286 -14.7989 -12.6795 -11.3297

     occupation numbers 
     1.0000   1.0000   1.0000   1.0000

          k = 0.0625 0.3248 0.0000     band energies (ev):

   -24.2766 -15.3099 -12.8732 -11.0431

     occupation numbers 
     1.0000   1.0000   1.0000   1.0000

          k = 0.0625 0.3488 0.0000     band energies (ev):

   -24.0073 -15.8243 -13.0540 -10.7402

     occupation numbers 
     1.0000   1.0000   1.0000   1.0000

          k = 0.0625 0.3729 0.0000     band energies (ev):

   -23.7205 -16.3381 -13.2205 -10.4221

     occupation numbers 
     1.0000   1.0000   1.0000   1.0000

          k = 0.0625 0.3969 0.0000     band energies (ev):

   -23.4161 -16.8497 -13.3706 -10.0925

     occupation numbers 
     1.0000   1.0000   1.0000   1.0000

          k = 0.0625 0.4210 0.0000     band energies (ev):

   -23.0963 -17.3550 -13.5042  -9.7545

     occupation numbers 
     1.0000   1.0000   1.0000   1.0000

          k = 0.0625 0.4450 0.0000     band energies (ev):

   -22.7611 -17.8521 -13.6201  -9.4144

     occupation numbers 
     1.0000   1.0000   1.0000   1.0000

          k = 0.0625 0.4691 0.0000     band energies (ev):

   -22.4125 -18.3376 -13.7176  -9.0808

     occupation numbers 
     1.0000   1.0000   1.0000   1.0000

          k = 0.0625 0.4932 0.0000     band energies (ev):

   -22.0539 -18.8071 -13.7961  -8.7658

     occupation numbers 
     1.0000   1.0000   1.0000   1.0000

          k = 0.0625 0.5172 0.0000     band energies (ev):

   -21.6922 -19.2514 -13.8553  -8.4889

     occupation numbers 
     1.0000   1.0000   1.0000   1.0000

          k = 0.0625 0.5413 0.0000     band energies (ev):

   -21.3490 -19.6508 -13.8949  -8.2765

     occupation numbers 
     1.0000   1.0000   1.0000   1.0000

          k = 0.0625 0.5653 0.0000     band energies (ev):

   -21.0933 -19.9355 -13.9148  -8.1591

     occupation numbers 
     1.0000   1.0000   1.0000   1.0000

          k = 0.0833 0.1443 0.0000     band energies (ev):

   -25.6553 -12.6398 -12.0060 -11.3795

     occupation numbers 
     1.0000   1.0000   1.0000   1.0000

          k = 0.0833 0.1684 0.0000     band energies (ev):

   -25.5264 -12.4885 -12.3552 -11.6044

     occupation numbers 
     1.0000   1.0000   1.0000   1.0000

          k = 0.0833 0.1925 0.0000     band energies (ev):

   -25.3786 -12.7419 -12.3148 -11.8388

     occupation numbers 
     1.0000   1.0000   1.0000   1.0000

          k = 0.0833 0.2165 0.0000     band energies (ev):

   -25.2110 -13.1613 -12.1195 -12.0754

     occupation numbers 
     1.0000   1.0000   1.0000   1.0000

          k = 0.0833 0.2406 0.0000     band energies (ev):

   -25.0253 -13.6081 -12.3092 -11.9024

     occupation numbers 
     1.0000   1.0000   1.0000   1.0000

          k = 0.0833 0.2646 0.0000     band energies (ev):

   -24.8199 -14.0769 -12.5363 -11.6644

     occupation numbers 
     1.0000   1.0000   1.0000   1.0000

          k = 0.0833 0.2887 0.0000     band energies (ev):

   -24.5961 -14.5618 -12.7538 -11.4068

     occupation numbers 
     1.0000   1.0000   1.0000   1.0000

          k = 0.0833 0.3127 0.0000     band energies (ev):

   -24.3542 -15.0584 -12.9597 -11.1299

     occupation numbers 
     1.0000   1.0000   1.0000   1.0000

          k = 0.0833 0.3368 0.0000     band energies (ev):

   -24.0939 -15.5623 -13.1520 -10.8351

     occupation numbers 
     1.0000   1.0000   1.0000   1.0000

          k = 0.0833 0.3608 0.0000     band energies (ev):

   -23.8160 -16.0691 -13.3295 -10.5245

     occupation numbers 
     1.0000   1.0000   1.0000   1.0000

          k = 0.0833 0.3849 0.0000     band energies (ev):

   -23.5212 -16.5761 -13.4910 -10.2005

     occupation numbers 
     1.0000   1.0000   1.0000   1.0000

          k = 0.0833 0.4090 0.0000     band energies (ev):

   -23.2093 -17.0796 -13.6354  -9.8666

     occupation numbers 
     1.0000   1.0000   1.0000   1.0000

          k = 0.0833 0.4330 0.0000     band energies (ev):

   -22.8818 -17.5767 -13.7617  -9.5266

     occupation numbers 
     1.0000   1.0000   1.0000   1.0000

          k = 0.0833 0.4571 0.0000     band energies (ev):

   -22.5405 -18.0648 -13.8700  -9.1881

     occupation numbers 
     1.0000   1.0000   1.0000   1.0000

          k = 0.0833 0.4811 0.0000     band energies (ev):

   -22.1864 -18.5396 -13.9590  -8.8610

     occupation numbers 
     1.0000   1.0000   1.0000   1.0000

          k = 0.0833 0.5052 0.0000     band energies (ev):

   -21.8262 -18.9961 -14.0287  -8.5610

     occupation numbers 
     1.0000   1.0000   1.0000   1.0000

          k = 0.0833 0.5292 0.0000     band energies (ev):

   -21.4704 -19.4202 -14.0786  -8.3112

     occupation numbers 
     1.0000   1.0000   1.0000   1.0000

          k = 0.0833 0.5533 0.0000     band energies (ev):

   -21.1572 -19.7749 -14.1088  -8.1410

     occupation numbers 
     1.0000   1.0000   1.0000   1.0000

          k = 0.0833 0.5774 0.0000     band energies (ev):

   -21.0076 -19.9386 -14.1187  -8.0799

     occupation numbers 
     1.0000   1.0000   1.0000   1.0000

          k = 0.1042 0.1804 0.0000     band energies (ev):

   -25.3884 -12.6939 -12.3268 -11.8511

     occupation numbers 
     1.0000   1.0000   1.0000   1.0000

          k = 0.1042 0.2045 0.0000     band energies (ev):

   -25.2310 -13.0660 -12.1421 -12.1063

     occupation numbers 
     1.0000   1.0000   1.0000   1.0000

          k = 0.1042 0.2285 0.0000     band energies (ev):

   -25.0544 -13.4700 -12.3610 -11.9364

     occupation numbers 
     1.0000   1.0000   1.0000   1.0000

          k = 0.1042 0.2526 0.0000     band energies (ev):

   -24.8592 -13.9019 -12.6087 -11.7090

     occupation numbers 
     1.0000   1.0000   1.0000   1.0000

          k = 0.1042 0.2766 0.0000     band energies (ev):

   -24.6451 -14.3570 -12.8453 -11.4620

     occupation numbers 
     1.0000   1.0000   1.0000   1.0000

          k = 0.1042 0.3007 0.0000     band energies (ev):

   -24.4124 -14.8298 -13.0687 -11.1949

     occupation numbers 
     1.0000   1.0000   1.0000   1.0000

          k = 0.1042 0.3248 0.0000     band energies (ev):

   -24.1612 -15.3152 -13.2769 -10.9092

     occupation numbers 
     1.0000   1.0000   1.0000   1.0000

          k = 0.1042 0.3488 0.0000     band energies (ev):

   -23.8930 -15.8086 -13.4689 -10.6070

     occupation numbers 
     1.0000   1.0000   1.0000   1.0000

          k = 0.1042 0.3729 0.0000     band energies (ev):

   -23.6064 -16.3059 -13.6439 -10.2898

     occupation numbers 
     1.0000   1.0000   1.0000   1.0000

          k = 0.1042 0.3969 0.0000     band energies (ev):

   -23.3040 -16.8033 -13.8011  -9.9606

     occupation numbers 
     1.0000   1.0000   1.0000   1.0000

          k = 0.1042 0.4210 0.0000     band energies (ev):

   -22.9844 -17.2973 -13.9397  -9.6228

     occupation numbers 
     1.0000   1.0000   1.0000   1.0000

          k = 0.1042 0.4450 0.0000     band energies (ev):

   -22.6507 -17.7848 -14.0596  -9.2824

     occupation numbers 
     1.0000   1.0000   1.0000   1.0000

          k = 0.1042 0.4691 0.0000     band energies (ev):

   -22.3034 -18.2627 -14.1597  -8.9474

     occupation numbers 
     1.0000   1.0000   1.0000   1.0000

          k = 0.1042 0.4932 0.0000     band energies (ev):

   -21.9468 -18.7250 -14.2406  -8.6304

     occupation numbers 
     1.0000   1.0000   1.0000   1.0000

          k = 0.1042 0.5172 0.0000     band energies (ev):

   -21.5873 -19.1644 -14.3014  -8.3501

     occupation numbers 
     1.0000   1.0000   1.0000   1.0000

          k = 0.1042 0.5413 0.0000     band energies (ev):

   -21.2461 -19.5595 -14.3420  -8.1340

     occupation numbers 
     1.0000   1.0000   1.0000   1.0000

          k = 0.1042 0.5653 0.0000     band energies (ev):

   -20.9922 -19.8406 -14.3622  -8.0137

     occupation numbers 
     1.0000   1.0000   1.0000   1.0000

          k = 0.1250 0.2165 0.0000     band energies (ev):

   -25.0645 -13.4183 -12.3839 -11.9477

     occupation numbers 
     1.0000   1.0000   1.0000   1.0000

          k = 0.1250 0.2406 0.0000     band energies (ev):

   -24.8783 -13.7998 -12.6600 -11.7317

     occupation numbers 
     1.0000   1.0000   1.0000   1.0000

          k = 0.1250 0.2646 0.0000     band energies (ev):

   -24.6739 -14.2095 -12.9262 -11.4950

     occupation numbers 
     1.0000   1.0000   1.0000   1.0000

          k = 0.1250 0.2887 0.0000     band energies (ev):

   -24.4516 -14.6444 -13.1766 -11.2379

     occupation numbers 
     1.0000   1.0000   1.0000   1.0000

          k = 0.1250 0.3127 0.0000     band energies (ev):

   -24.2098 -15.0994 -13.4090 -10.9625

     occupation numbers 
     1.0000   1.0000   1.0000   1.0000

          k = 0.1250 0.3368 0.0000     band energies (ev):

   -23.9504 -15.5694 -13.6222 -10.6690

     occupation numbers 
     1.0000   1.0000   1.0000   1.0000

          k = 0.1250 0.3608 0.0000     band energies (ev):

   -23.6738 -16.0492 -13.8155 -10.3596

     occupation numbers 
     1.0000   1.0000   1.0000   1.0000

          k = 0.1250 0.3849 0.0000     band energies (ev):

   -23.3799 -16.5339 -13.9892 -10.0366

     occupation numbers 
     1.0000   1.0000   1.0000   1.0000

          k = 0.1250 0.4090 0.0000     band energies (ev):

   -23.0690 -17.0200 -14.1429  -9.7031

     occupation numbers 
     1.0000   1.0000   1.0000   1.0000

          k = 0.1250 0.4330 0.0000     band energies (ev):

   -22.7435 -17.5024 -14.2765  -9.3629

     occupation numbers 
     1.0000   1.0000   1.0000   1.0000

          k = 0.1250 0.4571 0.0000     band energies (ev):

   -22.4032 -17.9792 -14.3897  -9.0234

     occupation numbers 
     1.0000   1.0000   1.0000   1.0000

          k = 0.1250 0.4811 0.0000     band energies (ev):

   -22.0519 -18.4443 -14.4826  -8.6942

     occupation numbers 
     1.0000   1.0000   1.0000   1.0000

          k = 0.1250 0.5052 0.0000     band energies (ev):

   -21.6935 -18.8921 -14.5551  -8.3904

     occupation numbers 
     1.0000   1.0000   1.0000   1.0000

          k = 0.1250 0.5292 0.0000     band energies (ev):

   -21.3405 -19.3100 -14.6069  -8.1358

     occupation numbers 
     1.0000   1.0000   1.0000   1.0000

          k = 0.1250 0.5533 0.0000     band energies (ev):

   -21.0298 -19.6600 -14.6380  -7.9610

     occupation numbers 
     1.0000   1.0000   1.0000   1.0000

          k = 0.1250 0.5774 0.0000     band energies (ev):

   -20.8816 -19.8214 -14.6486  -7.8980

     occupation numbers 
     1.0000   1.0000   1.0000   1.0000

          k = 0.1458 0.2526 0.0000     band energies (ev):

   -24.6839 -14.1539 -12.9597 -11.5057

     occupation numbers 
     1.0000   1.0000   1.0000   1.0000

          k = 0.1458 0.2766 0.0000     band energies (ev):

   -24.4706 -14.5348 -13.2480 -11.2599

     occupation numbers 
     1.0000   1.0000   1.0000   1.0000

          k = 0.1458 0.3007 0.0000     band energies (ev):

   -24.2392 -14.9423 -13.5170 -10.9943

     occupation numbers 
     1.0000   1.0000   1.0000   1.0000

          k = 0.1458 0.3248 0.0000     band energies (ev):

   -23.9891 -15.3730 -13.7631 -10.7101

     occupation numbers 
     1.0000   1.0000   1.0000   1.0000

          k = 0.1458 0.3488 0.0000     band energies (ev):

   -23.7214 -15.8223 -13.9850 -10.4096

     occupation numbers 
     1.0000   1.0000   1.0000   1.0000

          k = 0.1458 0.3729 0.0000     band energies (ev):

   -23.4366 -16.2842 -14.1825 -10.0939

     occupation numbers 
     1.0000   1.0000   1.0000   1.0000

          k = 0.1458 0.3969 0.0000     band energies (ev):

   -23.1353 -16.7537 -14.3567  -9.7656

     occupation numbers 
     1.0000   1.0000   1.0000   1.0000

          k = 0.1458 0.4210 0.0000     band energies (ev):

   -22.8177 -17.2254 -14.5080  -9.4284

     occupation numbers 
     1.0000   1.0000   1.0000   1.0000

          k = 0.1458 0.4450 0.0000     band energies (ev):

   -22.4858 -17.6948 -14.6371  -9.0874

     occupation numbers 
     1.0000   1.0000   1.0000   1.0000

          k = 0.1458 0.4691 0.0000     band energies (ev):

   -22.1409 -18.1580 -14.7448  -8.7505

     occupation numbers 
     1.0000   1.0000   1.0000   1.0000

          k = 0.1458 0.4932 0.0000     band energies (ev):

   -21.7867 -18.6095 -14.8303  -8.4297

     occupation numbers 
     1.0000   1.0000   1.0000   1.0000

          k = 0.1458 0.5172 0.0000     band energies (ev):

   -21.4302 -19.0397 -14.8945  -8.1441

     occupation numbers 
     1.0000   1.0000   1.0000   1.0000

          k = 0.1458 0.5413 0.0000     band energies (ev):

   -21.0919 -19.4272 -14.9375  -7.9214

     occupation numbers 
     1.0000   1.0000   1.0000   1.0000

          k = 0.1458 0.5653 0.0000     band energies (ev):

   -20.8403 -19.7038 -14.9588  -7.7964

     occupation numbers 
     1.0000   1.0000   1.0000   1.0000

          k = 0.1667 0.2887 0.0000     band energies (ev):

   -24.2486 -14.8825 -13.5607 -11.0053

     occupation numbers 
     1.0000   1.0000   1.0000   1.0000

[...]

     occupation numbers 
     1.0000   1.0000   1.0000   1.0000

          k = 0.1458 0.4932 0.0000 (  4233 PWs)   bands (ev):

   -17.3663 -14.0736 -10.0986  -4.9639

     occupation numbers 
     1.0000   1.0000   1.0000   1.0000

          k = 0.1458 0.5172 0.0000 (  4239 PWs)   bands (ev):

   -16.9922 -14.5274 -10.1648  -4.6553

     occupation numbers 
     1.0000   1.0000   1.0000   1.0000

          k = 0.1458 0.5413 0.0000 (  4252 PWs)   bands (ev):

   -16.6340 -14.9393 -10.2090  -4.4120

     occupation numbers 
     1.0000   1.0000   1.0000   1.0000

          k = 0.1458 0.5653 0.0000 (  4258 PWs)   bands (ev):

   -16.3620 -15.2383 -10.2310  -4.2740

     occupation numbers 
     1.0000   1.0000   1.0000   1.0000

          k = 0.1667 0.2887 0.0000 (  4235 PWs)   bands (ev):

   -19.9276 -10.1346  -8.7813  -7.6799

     occupation numbers 
     1.0000   1.0000   1.0000   1.0000

          k = 0.1667 0.3127 0.0000 (  4233 PWs)   bands (ev):

   -19.6786 -10.5274  -9.0943  -7.3940

     occupation numbers 
     1.0000   1.0000   1.0000   1.0000

          k = 0.1667 0.3368 0.0000 (  4231 PWs)   bands (ev):

   -19.4109 -10.9491  -9.3753  -7.0892

     occupation numbers 
     1.0000   1.0000   1.0000   1.0000

          k = 0.1667 0.3608 0.0000 (  4242 PWs)   bands (ev):

   -19.1250 -11.3957  -9.6224  -6.7671

     occupation numbers 
     1.0000   1.0000   1.0000   1.0000

          k = 0.1667 0.3849 0.0000 (  4235 PWs)   bands (ev):

   -18.8213 -11.8604  -9.8369  -6.4297

     occupation numbers 
     1.0000   1.0000   1.0000   1.0000

          k = 0.1667 0.4090 0.0000 (  4235 PWs)   bands (ev):

   -18.5005 -12.3363 -10.0211  -6.0797

     occupation numbers 
     1.0000   1.0000   1.0000   1.0000

          k = 0.1667 0.4330 0.0000 (  4241 PWs)   bands (ev):

   -18.1635 -12.8167 -10.1774  -5.7212

     occupation numbers 
     1.0000   1.0000   1.0000   1.0000

          k = 0.1667 0.4571 0.0000 (  4237 PWs)   bands (ev):

   -17.8118 -13.2960 -10.3076  -5.3603

     occupation numbers 
     1.0000   1.0000   1.0000   1.0000

          k = 0.1667 0.4811 0.0000 (  4239 PWs)   bands (ev):

   -17.4476 -13.7684 -10.4128  -5.0064

     occupation numbers 
     1.0000   1.0000   1.0000   1.0000

          k = 0.1667 0.5052 0.0000 (  4239 PWs)   bands (ev):

   -17.0757 -14.2267 -10.4940  -4.6746

     occupation numbers 
     1.0000   1.0000   1.0000   1.0000

          k = 0.1667 0.5292 0.0000 (  4238 PWs)   bands (ev):

   -16.7074 -14.6579 -10.5517  -4.3900

     occupation numbers 
     1.0000   1.0000   1.0000   1.0000

          k = 0.1667 0.5533 0.0000 (  4248 PWs)   bands (ev):

   -16.3787 -15.0248 -10.5862  -4.1898

     occupation numbers 
     1.0000   1.0000   1.0000   1.0000

          k = 0.1667 0.5774 0.0000 (  4252 PWs)   bands (ev):

   -16.2183 -15.1980 -10.5977  -4.1162

     occupation numbers 
     1.0000   1.0000   1.0000   1.0000

          k = 0.1875 0.3248 0.0000 (  4239 PWs)   bands (ev):

   -19.4209 -10.8776  -9.4369  -7.0998

     occupation numbers 
     1.0000   1.0000   1.0000   1.0000

          k = 0.1875 0.3488 0.0000 (  4237 PWs)   bands (ev):

   -19.1447 -11.2570  -9.7460  -6.7875

     occupation numbers 
     1.0000   1.0000   1.0000   1.0000

          k = 0.1875 0.3729 0.0000 (  4236 PWs)   bands (ev):

   -18.8507 -11.6657 -10.0154  -6.4588

     occupation numbers 
     1.0000   1.0000   1.0000   1.0000

          k = 0.1875 0.3969 0.0000 (  4235 PWs)   bands (ev):

   -18.5394 -12.0990 -10.2446  -6.1158

     occupation numbers 
     1.0000   1.0000   1.0000   1.0000

          k = 0.1875 0.4210 0.0000 (  4233 PWs)   bands (ev):

   -18.2116 -12.5491 -10.4368  -5.7618

     occupation numbers 
     1.0000   1.0000   1.0000   1.0000

          k = 0.1875 0.4450 0.0000 (  4241 PWs)   bands (ev):

   -17.8684 -13.0082 -10.5955  -5.4014

     occupation numbers 
     1.0000   1.0000   1.0000   1.0000

          k = 0.1875 0.4691 0.0000 (  4247 PWs)   bands (ev):

   -17.5117 -13.4687 -10.7241  -5.0417

     occupation numbers 
     1.0000   1.0000   1.0000   1.0000

          k = 0.1875 0.4932 0.0000 (  4235 PWs)   bands (ev):

   -17.1447 -13.9231 -10.8247  -4.6941

     occupation numbers 
     1.0000   1.0000   1.0000   1.0000

          k = 0.1875 0.5172 0.0000 (  4237 PWs)   bands (ev):

   -16.7745 -14.3612 -10.8991  -4.3778

     occupation numbers 
     1.0000   1.0000   1.0000   1.0000

          k = 0.1875 0.5413 0.0000 (  4244 PWs)   bands (ev):

   -16.4202 -14.7618 -10.9482  -4.1243

     occupation numbers 
     1.0000   1.0000   1.0000   1.0000

          k = 0.1875 0.5653 0.0000 (  4244 PWs)   bands (ev):

   -16.1512 -15.0543 -10.9726  -3.9779

     occupation numbers 
     1.0000   1.0000   1.0000   1.0000

          k = 0.2083 0.3608 0.0000 (  4239 PWs)   bands (ev):

   -18.8606 -11.5894 -10.0865  -6.4685

     occupation numbers 
     1.0000   1.0000   1.0000   1.0000

          k = 0.2083 0.3849 0.0000 (  4229 PWs)   bands (ev):

   -18.5589 -11.9520 -10.3854  -6.1340

     occupation numbers 
     1.0000   1.0000   1.0000   1.0000

          k = 0.2083 0.4090 0.0000 (  4235 PWs)   bands (ev):

   -18.2405 -12.3448 -10.6375  -5.7864

     occupation numbers 
     1.0000   1.0000   1.0000   1.0000

          k = 0.2083 0.4330 0.0000 (  4243 PWs)   bands (ev):

   -17.9063 -12.7616 -10.8441  -5.4294

     occupation numbers 
     1.0000   1.0000   1.0000   1.0000

          k = 0.2083 0.4571 0.0000 (  4245 PWs)   bands (ev):

   -17.5578 -13.1936 -11.0099  -5.0682

     occupation numbers 
     1.0000   1.0000   1.0000   1.0000

          k = 0.2083 0.4811 0.0000 (  4239 PWs)   bands (ev):

   -17.1974 -13.6311 -11.1397  -4.7111

     occupation numbers 
     1.0000   1.0000   1.0000   1.0000

          k = 0.2083 0.5052 0.0000 (  4241 PWs)   bands (ev):

   -16.8298 -14.0638 -11.2373  -4.3723

     occupation numbers 
     1.0000   1.0000   1.0000   1.0000

          k = 0.2083 0.5292 0.0000 (  4239 PWs)   bands (ev):

   -16.4660 -14.4767 -11.3054  -4.0760

     occupation numbers 
     1.0000   1.0000   1.0000   1.0000

          k = 0.2083 0.5533 0.0000 (  4248 PWs)   bands (ev):

   -16.1410 -14.8321 -11.3457  -3.8624

     occupation numbers 
     1.0000   1.0000   1.0000   1.0000

          k = 0.2083 0.5774 0.0000 (  4238 PWs)   bands (ev):

   -15.9818 -15.0016 -11.3590  -3.7824

     occupation numbers 
     1.0000   1.0000   1.0000   1.0000

          k = 0.2292 0.3969 0.0000 (  4235 PWs)   bands (ev):

   -18.2501 -12.2639 -10.7173  -5.7947

     occupation numbers 
     1.0000   1.0000   1.0000   1.0000

          k = 0.2292 0.4210 0.0000 (  4244 PWs)   bands (ev):

   -17.9253 -12.6074 -11.0000  -5.4436

     occupation numbers 
     1.0000   1.0000   1.0000   1.0000

          k = 0.2292 0.4450 0.0000 (  4240 PWs)   bands (ev):

   -17.5856 -12.9815 -11.2295  -5.0845

     occupation numbers 
     1.0000   1.0000   1.0000   1.0000

          k = 0.2292 0.4691 0.0000 (  4239 PWs)   bands (ev):

   -17.2330 -13.3785 -11.4090  -4.7235

     occupation numbers 
     1.0000   1.0000   1.0000   1.0000

          k = 0.2292 0.4932 0.0000 (  4237 PWs)   bands (ev):

   -16.8707 -13.7871 -11.5443  -4.3705

     occupation numbers 
     1.0000   1.0000   1.0000   1.0000

          k = 0.2292 0.5172 0.0000 (  4239 PWs)   bands (ev):

   -16.5055 -14.1931 -11.6410  -4.0428

     occupation numbers 
     1.0000   1.0000   1.0000   1.0000

          k = 0.2292 0.5413 0.0000 (  4240 PWs)   bands (ev):

   -16.1559 -14.5726 -11.7035  -3.7721

     occupation numbers 
     1.0000   1.0000   1.0000   1.0000

          k = 0.2292 0.5653 0.0000 (  4238 PWs)   bands (ev):

   -15.8887 -14.8556 -11.7341  -3.6104

     occupation numbers 
     1.0000   1.0000   1.0000   1.0000

          k = 0.2500 0.4330 0.0000 (  4235 PWs)   bands (ev):

   -17.5949 -12.8968 -11.3168  -5.0900

     occupation numbers 
     1.0000   1.0000   1.0000   1.0000

          k = 0.2500 0.4571 0.0000 (  4239 PWs)   bands (ev):

   -17.2509 -13.2190 -11.5772  -4.7301

     occupation numbers 
     1.0000   1.0000   1.0000   1.0000

          k = 0.2500 0.4811 0.0000 (  4235 PWs)   bands (ev):

   -16.8957 -13.5715 -11.7784  -4.3703

     occupation numbers 
     1.0000   1.0000   1.0000   1.0000

          k = 0.2500 0.5052 0.0000 (  4230 PWs)   bands (ev):

   -16.5338 -13.9432 -11.9251  -4.0222

     occupation numbers 
     1.0000   1.0000   1.0000   1.0000

          k = 0.2500 0.5292 0.0000 (  4222 PWs)   bands (ev):

   -16.1756 -14.3152 -12.0240  -3.7077

     occupation numbers 
     1.0000   1.0000   1.0000   1.0000

          k = 0.2500 0.5533 0.0000 (  4233 PWs)   bands (ev):

   -15.8537 -14.6483 -12.0811  -3.4698

     occupation numbers 
     1.0000   1.0000   1.0000   1.0000

          k = 0.2500 0.5774 0.0000 (  4245 PWs)   bands (ev):

   -15.6931 -14.8130 -12.0997  -3.3765

     occupation numbers 
     1.0000   1.0000   1.0000   1.0000

          k = 0.2708 0.4691 0.0000 (  4235 PWs)   bands (ev):

   -16.9041 -13.4849 -11.8714  -4.3704

     occupation numbers 
     1.0000   1.0000   1.0000   1.0000

          k = 0.2708 0.4932 0.0000 (  4225 PWs)   bands (ev):

   -16.5485 -13.7839 -12.1014  -4.0124

     occupation numbers 
     1.0000   1.0000   1.0000   1.0000

          k = 0.2708 0.5172 0.0000 (  4227 PWs)   bands (ev):

   -16.1903 -14.1094 -12.2658  -3.6693

     occupation numbers 
     1.0000   1.0000   1.0000   1.0000

          k = 0.2708 0.5413 0.0000 (  4232 PWs)   bands (ev):

   -15.8458 -14.4384 -12.3698  -3.3693

     occupation numbers 
     1.0000   1.0000   1.0000   1.0000

          k = 0.2708 0.5653 0.0000 (  4237 PWs)   bands (ev):

   -15.5762 -14.7025 -12.4198  -3.1749

     occupation numbers 
     1.0000   1.0000   1.0000   1.0000

          k = 0.2917 0.5052 0.0000 (  4223 PWs)   bands (ev):

   -16.1956 -14.0259 -12.3609  -3.6566

     occupation numbers 
     1.0000   1.0000   1.0000   1.0000

          k = 0.2917 0.5292 0.0000 (  4227 PWs)   bands (ev):

   -15.8458 -14.2983 -12.5459  -3.3165

     occupation numbers 
     1.0000   1.0000   1.0000   1.0000

          k = 0.2917 0.5533 0.0000 (  4232 PWs)   bands (ev):

   -15.5247 -14.5758 -12.6544  -3.0296

     occupation numbers 
     1.0000   1.0000   1.0000   1.0000

          k = 0.2917 0.5774 0.0000 (  4243 PWs)   bands (ev):

   -15.3527 -14.7341 -12.6899  -2.9000

     occupation numbers 
     1.0000   1.0000   1.0000   1.0000

          k = 0.3125 0.5413 0.0000 (  4229 PWs)   bands (ev):

   -15.5112 -14.5183 -12.7442  -2.9747

     occupation numbers 
     1.0000   1.0000   1.0000   1.0000

          k = 0.3125 0.5653 0.0000 (  4241 PWs)   bands (ev):

   -15.2246 -14.7450 -12.8463  -2.6908

     occupation numbers 
     1.0000   1.0000   1.0000   1.0000

          k = 0.3333 0.5774 0.0000 (  4251 PWs)   bands (ev):

   -14.9609 -14.9609 -12.9147  -2.3546

     occupation numbers 
     1.0000   1.0000   1.0000   1.0000

     highest occupied level (ev):    -2.3546

!    total energy              =     -36.88719189 Ry
     total all-electron energy =      -152.415388 Ry
     estimated scf accuracy    <          1.4E-11 Ry

     The total energy is the sum of the following terms:
     one-electron contribution =    -223.49505645 Ry
     hartree contribution      =     113.17990149 Ry
     xc contribution           =      -9.27104553 Ry
     ewald contribution        =      95.03260269 Ry
     one-center paw contrib.   =     -12.33359410 Ry
      -> PAW hartree energy AE =       9.49283946 Ry
      -> PAW hartree energy PS =      -9.48421983 Ry
      -> PAW xc energy AE      =     -10.67424772 Ry
      -> PAW xc energy PS      =       4.49883105 Ry
      -> total E_H with PAW    =     113.18852112 Ry
      -> total E_XC with PAW   =     -15.44646220 Ry

     convergence has been achieved in  10 iterations

     negative rho (up, down):  1.273E-04 0.000E+00

     Forces acting on atoms (cartesian axes, Ry/au):

     atom    1 type  1   force =     0.00000000    0.00000000    0.00000000
     atom    2 type  1   force =     0.00000000    0.00000000    0.00000000
     The non-local contrib.  to forces
     atom    1 type  1   force =     0.00000000   -0.00000000    0.00000000
     atom    2 type  1   force =    -0.00000000    0.00000000    0.00000000
     The ionic contribution  to forces
     atom    1 type  1   force =    -0.00000001    0.00000000    0.00000000
     atom    2 type  1   force =     0.00000001   -0.00000000    0.00000000
     The local contribution  to forces
     atom    1 type  1   force =    -0.00000000   -0.00000000   -0.00000000
     atom    2 type  1   force =     0.00000001   -0.00000000   -0.00000000
     The core correction contribution to forces
     atom    1 type  1   force =    -0.00000000   -0.00000000   -0.00000000
     atom    2 type  1   force =    -0.00000000    0.00000000   -0.00000000
     The Hubbard contrib.    to forces
     atom    1 type  1   force =     0.00000000    0.00000000    0.00000000
     atom    2 type  1   force =     0.00000000    0.00000000    0.00000000
     The SCF correction term to forces
     atom    1 type  1   force =     0.00000000    0.00000000    0.00000000
     atom    2 type  1   force =     0.00000000    0.00000000    0.00000000

     Total force =     0.000000     Total SCF correction =     0.000000


     Computing stress (Cartesian axis) and pressure


     negative rho (up, down):  1.273E-04 0.000E+00
          total   stress  (Ry/bohr**3)                   (kbar)     P=       -0.33
  -0.00000281   0.00000000   0.00000000           -0.41        0.00        0.00
   0.00000000  -0.00000281   0.00000000            0.00       -0.41        0.00
   0.00000000   0.00000000  -0.00000106            0.00        0.00       -0.16

     kinetic stress (kbar)   1936.10      0.00      0.00
                                0.00   1936.10      0.00
                                0.00      0.00   2198.45

     local   stress (kbar) -48876.16      0.00     -0.00
                                0.00 -48876.16      0.00
                               -0.00      0.00  48735.70

     nonloc. stress (kbar)    487.62     -0.00      0.00
                               -0.00    487.62     -0.00
                                0.00     -0.00    444.69

     hartree stress (kbar)  23224.79     -0.00      0.00
                               -0.00  23224.79     -0.00
                                0.00     -0.00 -23052.56

     exc-cor stress (kbar)    -34.62     -0.00     -0.00
                               -0.00    -34.62     -0.00
                               -0.00     -0.00    -56.60

     corecor stress (kbar)   -466.56      0.00      0.00
                                0.00   -466.56     -0.00
                                0.00     -0.00   -458.54

     ewald   stress (kbar)  23728.42     -0.00     -0.00
                               -0.00  23728.42     -0.00
                               -0.00     -0.00 -27811.30

     hubbard stress (kbar)      0.00      0.00      0.00
                                0.00      0.00      0.00
                                0.00      0.00      0.00

     DFT-D   stress (kbar)      0.00      0.00      0.00
                                0.00      0.00      0.00
                                0.00      0.00      0.00

     XDM     stress (kbar)      0.00      0.00      0.00
                                0.00      0.00      0.00
                                0.00      0.00      0.00

     dft-nl  stress (kbar)      0.00      0.00      0.00
                                0.00      0.00      0.00
                                0.00      0.00      0.00

     TS-vdW  stress (kbar)      0.00      0.00      0.00
                                0.00      0.00      0.00
                                0.00      0.00      0.00

     MDB     stress (kbar)      0.00      0.00      0.00
                                0.00      0.00      0.00
                                0.00      0.00      0.00

     3D-RISM stress (kbar)      0.00      0.00      0.00
                                0.00      0.00      0.00
                                0.00      0.00      0.00


     Writing all to output data dir ./out/graphene.save/

     init_run     :     58.95s CPU     39.88s WALL (       1 calls)
     electrons    :   1123.94s CPU    722.35s WALL (       1 calls)
     forces       :     14.63s CPU      9.51s WALL (       1 calls)
     stress       :     28.21s CPU     16.52s WALL (       1 calls)

     Called by init_run:
     wfcinit      :     55.77s CPU     37.24s WALL (       1 calls)
     wfcinit:atom :      0.80s CPU      0.57s WALL (     217 calls)
     wfcinit:wfcr :     51.97s CPU     34.68s WALL (     217 calls)
     potinit      :      1.26s CPU      0.86s WALL (       1 calls)
     hinit0       :      1.09s CPU      0.85s WALL (       1 calls)

     Called by electrons:
     c_bands      :    958.06s CPU    612.95s WALL (      10 calls)
     sum_band     :    158.73s CPU    104.91s WALL (      10 calls)
     v_of_rho     :      2.73s CPU      1.57s WALL (      11 calls)
     v_h          :      0.17s CPU      0.10s WALL (      11 calls)
     v_xc         :      3.02s CPU      1.71s WALL (      13 calls)
     newd         :      2.38s CPU      1.54s WALL (      11 calls)
     PAW_pot      :      1.74s CPU      0.91s WALL (      11 calls)
     mix_rho      :      0.34s CPU      0.18s WALL (      10 calls)

     Called by c_bands:
     init_us_2    :     12.37s CPU      8.05s WALL (    4991 calls)
     init_us_2:cp :     12.28s CPU      8.00s WALL (    4991 calls)
     cegterg      :    933.55s CPU    596.43s WALL (    2170 calls)

     Called by sum_band:
     sum_band:wei :      0.00s CPU      0.00s WALL (      10 calls)
     sum_band:loo :    155.79s CPU    102.84s WALL (      10 calls)
     sum_band:buf :      0.12s CPU      0.11s WALL (    2170 calls)
     sum_band:ini :      4.73s CPU      3.33s WALL (    2170 calls)
     sum_band:cal :     25.97s CPU     16.57s WALL (    2170 calls)
     sum_band:bec :     12.95s CPU      9.64s WALL (    2170 calls)
     addusdens    :      2.26s CPU      1.58s WALL (      10 calls)
                                        0.00s GPU  (      10 calls)
     addusd:skk   :      0.04s CPU      0.03s WALL (      10 calls)
                                        0.00s GPU  (      10 calls)

     Called by *egterg:
     cdiaghg      :      3.05s CPU      2.02s WALL (    6667 calls)
     cegterg:over :     61.13s CPU     38.15s WALL (    4497 calls)
     cegterg:upda :     37.75s CPU     26.97s WALL (    4497 calls)
     cegterg:last :     10.87s CPU      7.48s WALL (    4130 calls)
     h_psi        :    692.34s CPU    436.10s WALL (    6884 calls)
     s_psi        :     31.50s CPU     22.87s WALL (    6884 calls)
     g_psi        :     21.15s CPU     15.06s WALL (    4497 calls)

     Called by h_psi:
     h_psi:calbec :     78.90s CPU     49.88s WALL (    6884 calls)
     vloc_psi     :    583.94s CPU    365.32s WALL (    6884 calls)
     add_vuspsi   :     15.40s CPU     10.77s WALL (    6884 calls)

     General routines
     calbec       :    118.48s CPU     74.98s WALL (   10139 calls)
     fft          :      2.02s CPU      1.16s WALL (     166 calls)
     ffts         :      0.67s CPU      0.46s WALL (      21 calls)
     fftw         :    610.59s CPU    378.95s WALL (   59018 calls)
     interpolate  :      0.60s CPU      0.43s WALL (      11 calls)

     Parallel routines

     PAW routines
     PAW_pot      :      1.74s CPU      0.91s WALL (      11 calls)
     PAW_symme    :      0.01s CPU      0.01s WALL (      21 calls)

     PWSCF        :  20m28.31s CPU  13m10.62s WALL


   This run was terminated on:  10:20: 4  17Nov2023            

=------------------------------------------------------------------------------=
   JOB DONE.
=------------------------------------------------------------------------------=
