
     Program PWSCF v.7.2 starts on 14Nov2023 at 22: 4: 4 

     This program is part of the open-source Quantum ESPRESSO suite
     for quantum simulation of materials; please cite
         "P. Giannozzi et al., J. Phys.:Condens. Matter 21 395502 (2009);
         "P. Giannozzi et al., J. Phys.:Condens. Matter 29 465901 (2017);
         "P. Giannozzi et al., J. Chem. Phys. 152 154105 (2020);
          URL http://www.quantum-espresso.org", 
     in publications or presentations arising from this work. More details at
     http://www.quantum-espresso.org/quote

     Parallel version (MPI & OpenMP), running on       4 processor cores
     Number of MPI processes:                 2
     Threads/MPI process:                     2

     MPI processes distributed on     1 nodes
     1156 MiB available memory on the printing compute node when the environment starts

     Reading input from graphene.scf.pwi

     Current dimensions of program PWSCF are:
     Max number of different atomic species (ntypx) = 10
     Max number of k-points (npk) =  40000
     Max angular momentum in pseudopotentials (lmaxx) =  4
     file C.pbe-n-kjpaw_psl.1.0.0.UPF: wavefunction(s)  2S 2P renormalized

     IMPORTANT: XC functional enforced from input :
     Exchange-correlation= PBE
                           (   1   4   3   4   0   0   0)
     Any further DFT definition will be discarded
     Please, verify this is what you really want

     Message from routine setup:
     using ibrav=0 with symmetry is DISCOURAGED, use correct ibrav instead

     R & G space division:  proc/nbgrp/npool/nimage =       2
     Subspace diagonalization in iterative solution of the eigenvalue problem:
     a serial algorithm will be used


     Parallelization info
     --------------------
     sticks:   dense  smooth     PW     G-vecs:    dense   smooth      PW
     Min         297     120     42                47977    12162    2290
     Max         298     121     43                47982    12183    2297
     Sum         595     241     85                95959    24345    4587

     Using Slab Decomposition


     Title: 
     graphene                                                                   


     bravais-lattice index     =            0
     lattice parameter (alat)  =       4.6487  a.u.
     unit-cell volume          =     710.6017 (a.u.)^3
     number of atoms/cell      =            2
     number of atomic types    =            1
     number of electrons       =         8.00
     number of Kohn-Sham states=            8
     kinetic-energy cutoff     =      40.0000  Ry
     charge density cutoff     =     400.0000  Ry
     scf convergence threshold =      1.0E-10
     mixing beta               =       0.3000
     number of iterations used =            8  plain     mixing
     Exchange-correlation= PBE
                           (   1   4   3   4   0   0   0)

     celldm(1)=   4.648726  celldm(2)=   0.000000  celldm(3)=   0.000000
     celldm(4)=   0.000000  celldm(5)=   0.000000  celldm(6)=   0.000000

     crystal axes: (cart. coord. in units of alat)
               a(1) = (   1.002304  -0.000000   0.000000 )  
               a(2) = (  -0.501152   0.868021   0.000000 )  
               a(3) = (   0.000000   0.000000   8.130081 )  

     reciprocal axes: (cart. coord. in units 2 pi/alat)
               b(1) = (  0.997701  0.576023 -0.000000 )  
               b(2) = (  0.000000  1.152046 -0.000000 )  
               b(3) = ( -0.000000 -0.000000  0.123000 )  


     PseudoPot. # 1 for C  read from file:
     ../../pseudos/C.pbe-n-kjpaw_psl.1.0.0.UPF
     MD5 check sum: 5d2aebdfa2cae82b50a7e79e9516da0f
     Pseudo is Projector augmented-wave + core cor, Zval =  4.0
     Generated using "atomic" code by A. Dal Corso  v.5.1
     Shape of augmentation charge: PSQ
     Using radial grid of 1073 points,  4 beta functions with: 
                l(1) =   0
                l(2) =   0
                l(3) =   1
                l(4) =   1
     Q(r) pseudized with 0 coefficients 


     atomic species   valence    mass     pseudopotential
        C              4.00    12.01100     C ( 1.00)

     24 Sym. Ops., with inversion, found (18 have fractional translation)


                                    s                        frac. trans.

      isym =  1     identity                                     

 cryst.   s( 1) = (     1          0          0      )
                  (     0          1          0      )
                  (     0          0          1      )

 cart.    s( 1) = (  1.0000000  0.0000000  0.0000000 )
                  (  0.0000000  1.0000000  0.0000000 )
                  (  0.0000000  0.0000000  1.0000000 )


      isym =  2     180 deg rotation - cart. axis [0,0,1]        

 cryst.   s( 2) = (    -1          0          0      )    f =( -0.3333333 )
                  (     0         -1          0      )       (  0.3333333 )
                  (     0          0          1      )       (  0.0000000 )

 cart.    s( 2) = ( -1.0000000 -0.0000000  0.0000000 )    f =( -0.5011519 )
                  (  0.0000000 -1.0000000  0.0000000 )       (  0.2893402 )
                  (  0.0000000  0.0000000  1.0000000 )       (  0.0000000 )


      isym =  3     180 deg rotation - cart. axis [0,1,0]        

 cryst.   s( 3) = (    -1          0          0      )    f =(  0.0000000 )
                  (     1          1          0      )       (  0.0000000 )
                  (     0          0         -1      )       (  0.5000000 )

 cart.    s( 3) = ( -1.0000000  0.0000000  0.0000000 )    f =(  0.0000000 )
                  (  0.0000000  1.0000000  0.0000000 )       (  0.0000000 )
                  (  0.0000000  0.0000000 -1.0000000 )       (  4.0650407 )


      isym =  4     180 deg rotation - cart. axis [1,0,0]        

 cryst.   s( 4) = (     1          0          0      )    f =( -0.3333333 )
                  (    -1         -1          0      )       (  0.3333333 )
                  (     0          0         -1      )       (  0.5000000 )

 cart.    s( 4) = (  1.0000000 -0.0000000  0.0000000 )    f =( -0.5011519 )
                  (  0.0000000 -1.0000000  0.0000000 )       (  0.2893402 )
                  (  0.0000000  0.0000000 -1.0000000 )       (  4.0650407 )


      isym =  5      60 deg rotation - cryst. axis [0,0,1]       

 cryst.   s( 5) = (     1          1          0      )    f =( -0.3333333 )
                  (    -1          0          0      )       (  0.3333333 )
                  (     0          0          1      )       (  0.0000000 )

 cart.    s( 5) = (  0.5000000 -0.8660254  0.0000000 )    f =( -0.5011519 )
                  (  0.8660254  0.5000000  0.0000000 )       (  0.2893402 )
                  (  0.0000000  0.0000000  1.0000000 )       (  0.0000000 )


      isym =  6      60 deg rotation - cryst. axis [0,0,-1]      

 cryst.   s( 6) = (     0         -1          0      )    f =( -0.3333333 )
                  (     1          1          0      )       (  0.3333333 )
                  (     0          0          1      )       (  0.0000000 )

 cart.    s( 6) = (  0.5000000  0.8660254  0.0000000 )    f =( -0.5011519 )
                  ( -0.8660254  0.5000000  0.0000000 )       (  0.2893402 )
                  (  0.0000000  0.0000000  1.0000000 )       (  0.0000000 )


      isym =  7     120 deg rotation - cryst. axis [0,0,1]       

 cryst.   s( 7) = (     0          1          0      )
                  (    -1         -1          0      )
                  (     0          0          1      )

 cart.    s( 7) = ( -0.5000000 -0.8660254  0.0000000 )
                  (  0.8660254 -0.5000000  0.0000000 )
                  (  0.0000000  0.0000000  1.0000000 )


      isym =  8     120 deg rotation - cryst. axis [0,0,-1]      

 cryst.   s( 8) = (    -1         -1          0      )
                  (     1          0          0      )
                  (     0          0          1      )

 cart.    s( 8) = ( -0.5000000  0.8660254  0.0000000 )
                  ( -0.8660254 -0.5000000  0.0000000 )
                  (  0.0000000  0.0000000  1.0000000 )


      isym =  9     180 deg rotation - cryst. axis [1,-1,0]      

 cryst.   s( 9) = (     0         -1          0      )    f =(  0.0000000 )
                  (    -1          0          0      )       (  0.0000000 )
                  (     0          0         -1      )       (  0.5000000 )

 cart.    s( 9) = (  0.5000000 -0.8660254  0.0000000 )    f =(  0.0000000 )
                  ( -0.8660254 -0.5000000  0.0000000 )       (  0.0000000 )
                  (  0.0000000  0.0000000 -1.0000000 )       (  4.0650407 )


      isym = 10     180 deg rotation - cryst. axis [2,1,0]       

 cryst.   s(10) = (     1          1          0      )    f =(  0.0000000 )
                  (     0         -1          0      )       (  0.0000000 )
                  (     0          0         -1      )       (  0.5000000 )

 cart.    s(10) = (  0.5000000  0.8660254  0.0000000 )    f =(  0.0000000 )
                  (  0.8660254 -0.5000000  0.0000000 )       (  0.0000000 )
                  (  0.0000000  0.0000000 -1.0000000 )       (  4.0650407 )


      isym = 11     180 deg rotation - cryst. axis [0,1,0]       

 cryst.   s(11) = (    -1         -1          0      )    f =( -0.3333333 )
                  (     0          1          0      )       (  0.3333333 )
                  (     0          0         -1      )       (  0.5000000 )

 cart.    s(11) = ( -0.5000000 -0.8660254  0.0000000 )    f =( -0.5011519 )
                  ( -0.8660254  0.5000000  0.0000000 )       (  0.2893402 )
                  (  0.0000000  0.0000000 -1.0000000 )       (  4.0650407 )


      isym = 12     180 deg rotation - cryst. axis [1,1,0]       

 cryst.   s(12) = (     0          1          0      )    f =( -0.3333333 )
                  (     1          0          0      )       (  0.3333333 )
                  (     0          0         -1      )       (  0.5000000 )

 cart.    s(12) = ( -0.5000000  0.8660254  0.0000000 )    f =( -0.5011519 )
                  (  0.8660254  0.5000000  0.0000000 )       (  0.2893402 )
                  (  0.0000000  0.0000000 -1.0000000 )       (  4.0650407 )


      isym = 13     inversion                                    

 cryst.   s(13) = (    -1          0          0      )    f =( -0.3333333 )
                  (     0         -1          0      )       (  0.3333333 )
                  (     0          0         -1      )       (  0.5000000 )

 cart.    s(13) = ( -1.0000000 -0.0000000  0.0000000 )    f =( -0.5011519 )
                  (  0.0000000 -1.0000000  0.0000000 )       (  0.2893402 )
                  (  0.0000000  0.0000000 -1.0000000 )       (  4.0650407 )


      isym = 14     inv. 180 deg rotation - cart. axis [0,0,1]   

 cryst.   s(14) = (     1          0          0      )    f =(  0.0000000 )
                  (     0          1          0      )       (  0.0000000 )
                  (     0          0         -1      )       (  0.5000000 )

 cart.    s(14) = (  1.0000000  0.0000000  0.0000000 )    f =(  0.0000000 )
                  (  0.0000000  1.0000000  0.0000000 )       (  0.0000000 )
                  (  0.0000000  0.0000000 -1.0000000 )       (  4.0650407 )


      isym = 15     inv. 180 deg rotation - cart. axis [0,1,0]   

 cryst.   s(15) = (     1          0          0      )    f =( -0.3333333 )
                  (    -1         -1          0      )       (  0.3333333 )
                  (     0          0          1      )       (  0.0000000 )

 cart.    s(15) = (  1.0000000 -0.0000000  0.0000000 )    f =( -0.5011519 )
                  (  0.0000000 -1.0000000  0.0000000 )       (  0.2893402 )
                  (  0.0000000  0.0000000  1.0000000 )       (  0.0000000 )


      isym = 16     inv. 180 deg rotation - cart. axis [1,0,0]   

 cryst.   s(16) = (    -1          0          0      )
                  (     1          1          0      )
                  (     0          0          1      )

 cart.    s(16) = ( -1.0000000  0.0000000  0.0000000 )
                  (  0.0000000  1.0000000  0.0000000 )
                  (  0.0000000  0.0000000  1.0000000 )


      isym = 17     inv.  60 deg rotation - cryst. axis [0,0,1]  

 cryst.   s(17) = (    -1         -1          0      )    f =(  0.0000000 )
                  (     1          0          0      )       (  0.0000000 )
                  (     0          0         -1      )       (  0.5000000 )

 cart.    s(17) = ( -0.5000000  0.8660254  0.0000000 )    f =(  0.0000000 )
                  ( -0.8660254 -0.5000000  0.0000000 )       (  0.0000000 )
                  (  0.0000000  0.0000000 -1.0000000 )       (  4.0650407 )


      isym = 18     inv.  60 deg rotation - cryst. axis [0,0,-1] 

 cryst.   s(18) = (     0          1          0      )    f =(  0.0000000 )
                  (    -1         -1          0      )       (  0.0000000 )
                  (     0          0         -1      )       (  0.5000000 )

 cart.    s(18) = ( -0.5000000 -0.8660254  0.0000000 )    f =(  0.0000000 )
                  (  0.8660254 -0.5000000  0.0000000 )       (  0.0000000 )
                  (  0.0000000  0.0000000 -1.0000000 )       (  4.0650407 )


      isym = 19     inv. 120 deg rotation - cryst. axis [0,0,1]  

 cryst.   s(19) = (     0         -1          0      )    f =( -0.3333333 )
                  (     1          1          0      )       (  0.3333333 )
                  (     0          0         -1      )       (  0.5000000 )

 cart.    s(19) = (  0.5000000  0.8660254  0.0000000 )    f =( -0.5011519 )
                  ( -0.8660254  0.5000000  0.0000000 )       (  0.2893402 )
                  (  0.0000000  0.0000000 -1.0000000 )       (  4.0650407 )


      isym = 20     inv. 120 deg rotation - cryst. axis [0,0,-1] 

 cryst.   s(20) = (     1          1          0      )    f =( -0.3333333 )
                  (    -1          0          0      )       (  0.3333333 )
                  (     0          0         -1      )       (  0.5000000 )

 cart.    s(20) = (  0.5000000 -0.8660254  0.0000000 )    f =( -0.5011519 )
                  (  0.8660254  0.5000000  0.0000000 )       (  0.2893402 )
                  (  0.0000000  0.0000000 -1.0000000 )       (  4.0650407 )


      isym = 21     inv. 180 deg rotation - cryst. axis [1,-1,0] 

 cryst.   s(21) = (     0          1          0      )    f =( -0.3333333 )
                  (     1          0          0      )       (  0.3333333 )
                  (     0          0          1      )       (  0.0000000 )

 cart.    s(21) = ( -0.5000000  0.8660254  0.0000000 )    f =( -0.5011519 )
                  (  0.8660254  0.5000000  0.0000000 )       (  0.2893402 )
                  (  0.0000000  0.0000000  1.0000000 )       (  0.0000000 )


      isym = 22     inv. 180 deg rotation - cryst. axis [2,1,0]  

 cryst.   s(22) = (    -1         -1          0      )    f =( -0.3333333 )
                  (     0          1          0      )       (  0.3333333 )
                  (     0          0          1      )       (  0.0000000 )

 cart.    s(22) = ( -0.5000000 -0.8660254  0.0000000 )    f =( -0.5011519 )
                  ( -0.8660254  0.5000000  0.0000000 )       (  0.2893402 )
                  (  0.0000000  0.0000000  1.0000000 )       (  0.0000000 )


      isym = 23     inv. 180 deg rotation - cryst. axis [0,1,0]  

 cryst.   s(23) = (     1          1          0      )
                  (     0         -1          0      )
                  (     0          0          1      )

 cart.    s(23) = (  0.5000000  0.8660254  0.0000000 )
                  (  0.8660254 -0.5000000  0.0000000 )
                  (  0.0000000  0.0000000  1.0000000 )


      isym = 24     inv. 180 deg rotation - cryst. axis [1,1,0]  

 cryst.   s(24) = (     0         -1          0      )
                  (    -1          0          0      )
                  (     0          0          1      )

 cart.    s(24) = (  0.5000000 -0.8660254  0.0000000 )
                  ( -0.8660254 -0.5000000  0.0000000 )
                  (  0.0000000  0.0000000  1.0000000 )


   Cartesian axes

     site n.     atom                  positions (alat units)
         1           C   tau(   1) = (   0.0000000   0.0000000   2.0325203  )
         2           C   tau(   2) = (  -0.0000000   0.5786804   2.0325203  )

   Crystallographic axes

     site n.     atom                  positions (cryst. coord.)
         1           C   tau(   1) = (  0.0000000  0.0000000  0.2500000  )
         2           C   tau(   2) = (  0.3333333  0.6666667  0.2500000  )

     number of k points=   217  Marzari-Vanderbilt smearing, width (Ry)=  0.0001
                       cart. coord. in units 2pi/alat
        k(    1) = (   0.0000000   0.0000000   0.0000000), wk =   0.0008681
        k(    2) = (   0.0000000   0.0240010   0.0000000), wk =   0.0052083
        k(    3) = (   0.0000000   0.0480019   0.0000000), wk =   0.0052083
        k(    4) = (   0.0000000   0.0720029   0.0000000), wk =   0.0052083
        k(    5) = (   0.0000000   0.0960039   0.0000000), wk =   0.0052083
        k(    6) = (   0.0000000   0.1200048   0.0000000), wk =   0.0052083
        k(    7) = (   0.0000000   0.1440058   0.0000000), wk =   0.0052083
        k(    8) = (   0.0000000   0.1680068   0.0000000), wk =   0.0052083
        k(    9) = (   0.0000000   0.1920077   0.0000000), wk =   0.0052083
        k(   10) = (   0.0000000   0.2160087   0.0000000), wk =   0.0052083
        k(   11) = (   0.0000000   0.2400097   0.0000000), wk =   0.0052083
        k(   12) = (   0.0000000   0.2640106   0.0000000), wk =   0.0052083
        k(   13) = (   0.0000000   0.2880116   0.0000000), wk =   0.0052083
        k(   14) = (   0.0000000   0.3120126   0.0000000), wk =   0.0052083
        k(   15) = (   0.0000000   0.3360135   0.0000000), wk =   0.0052083
        k(   16) = (   0.0000000   0.3600145   0.0000000), wk =   0.0052083
        k(   17) = (   0.0000000   0.3840155   0.0000000), wk =   0.0052083
        k(   18) = (   0.0000000   0.4080164   0.0000000), wk =   0.0052083
        k(   19) = (   0.0000000   0.4320174   0.0000000), wk =   0.0052083
        k(   20) = (   0.0000000   0.4560184   0.0000000), wk =   0.0052083
        k(   21) = (   0.0000000   0.4800193   0.0000000), wk =   0.0052083
        k(   22) = (   0.0000000   0.5040203   0.0000000), wk =   0.0052083
        k(   23) = (   0.0000000   0.5280213   0.0000000), wk =   0.0052083
        k(   24) = (   0.0000000   0.5520222   0.0000000), wk =   0.0052083
        k(   25) = (   0.0000000  -0.5760232   0.0000000), wk =   0.0026042
        k(   26) = (   0.0207854   0.0360015   0.0000000), wk =   0.0052083
        k(   27) = (   0.0207854   0.0600024   0.0000000), wk =   0.0104167
        k(   28) = (   0.0207854   0.0840034   0.0000000), wk =   0.0104167
        k(   29) = (   0.0207854   0.1080044   0.0000000), wk =   0.0104167
        k(   30) = (   0.0207854   0.1320053   0.0000000), wk =   0.0104167
        k(   31) = (   0.0207854   0.1560063   0.0000000), wk =   0.0104167
        k(   32) = (   0.0207854   0.1800073   0.0000000), wk =   0.0104167
        k(   33) = (   0.0207854   0.2040082   0.0000000), wk =   0.0104167
        k(   34) = (   0.0207854   0.2280092   0.0000000), wk =   0.0104167
        k(   35) = (   0.0207854   0.2520102   0.0000000), wk =   0.0104167
        k(   36) = (   0.0207854   0.2760111   0.0000000), wk =   0.0104167
        k(   37) = (   0.0207854   0.3000121   0.0000000), wk =   0.0104167
        k(   38) = (   0.0207854   0.3240131   0.0000000), wk =   0.0104167
        k(   39) = (   0.0207854   0.3480140   0.0000000), wk =   0.0104167
        k(   40) = (   0.0207854   0.3720150   0.0000000), wk =   0.0104167
        k(   41) = (   0.0207854   0.3960160   0.0000000), wk =   0.0104167
        k(   42) = (   0.0207854   0.4200169   0.0000000), wk =   0.0104167
        k(   43) = (   0.0207854   0.4440179   0.0000000), wk =   0.0104167
        k(   44) = (   0.0207854   0.4680189   0.0000000), wk =   0.0104167
        k(   45) = (   0.0207854   0.4920198   0.0000000), wk =   0.0104167
        k(   46) = (   0.0207854   0.5160208   0.0000000), wk =   0.0104167
        k(   47) = (   0.0207854   0.5400218   0.0000000), wk =   0.0104167
        k(   48) = (   0.0207854   0.5640227   0.0000000), wk =   0.0104167
        k(   49) = (   0.0415709   0.0720029   0.0000000), wk =   0.0052083
        k(   50) = (   0.0415709   0.0960039   0.0000000), wk =   0.0104167
        k(   51) = (   0.0415709   0.1200048   0.0000000), wk =   0.0104167
        k(   52) = (   0.0415709   0.1440058   0.0000000), wk =   0.0104167
        k(   53) = (   0.0415709   0.1680068   0.0000000), wk =   0.0104167
        k(   54) = (   0.0415709   0.1920077   0.0000000), wk =   0.0104167
        k(   55) = (   0.0415709   0.2160087   0.0000000), wk =   0.0104167
        k(   56) = (   0.0415709   0.2400097   0.0000000), wk =   0.0104167
        k(   57) = (   0.0415709   0.2640106   0.0000000), wk =   0.0104167
        k(   58) = (   0.0415709   0.2880116   0.0000000), wk =   0.0104167
        k(   59) = (   0.0415709   0.3120126   0.0000000), wk =   0.0104167
        k(   60) = (   0.0415709   0.3360135   0.0000000), wk =   0.0104167
        k(   61) = (   0.0415709   0.3600145   0.0000000), wk =   0.0104167
        k(   62) = (   0.0415709   0.3840155   0.0000000), wk =   0.0104167
        k(   63) = (   0.0415709   0.4080164   0.0000000), wk =   0.0104167
        k(   64) = (   0.0415709   0.4320174   0.0000000), wk =   0.0104167
        k(   65) = (   0.0415709   0.4560184   0.0000000), wk =   0.0104167
        k(   66) = (   0.0415709   0.4800193   0.0000000), wk =   0.0104167
        k(   67) = (   0.0415709   0.5040203   0.0000000), wk =   0.0104167
        k(   68) = (   0.0415709   0.5280213   0.0000000), wk =   0.0104167
        k(   69) = (   0.0415709   0.5520222   0.0000000), wk =   0.0104167
        k(   70) = (   0.0415709   0.5760232   0.0000000), wk =   0.0052083
        k(   71) = (   0.0623563   0.1080044   0.0000000), wk =   0.0052083
        k(   72) = (   0.0623563   0.1320053   0.0000000), wk =   0.0104167
        k(   73) = (   0.0623563   0.1560063   0.0000000), wk =   0.0104167
        k(   74) = (   0.0623563   0.1800073   0.0000000), wk =   0.0104167
        k(   75) = (   0.0623563   0.2040082   0.0000000), wk =   0.0104167
        k(   76) = (   0.0623563   0.2280092   0.0000000), wk =   0.0104167
        k(   77) = (   0.0623563   0.2520102   0.0000000), wk =   0.0104167
        k(   78) = (   0.0623563   0.2760111   0.0000000), wk =   0.0104167
        k(   79) = (   0.0623563   0.3000121   0.0000000), wk =   0.0104167
        k(   80) = (   0.0623563   0.3240131   0.0000000), wk =   0.0104167
        k(   81) = (   0.0623563   0.3480140   0.0000000), wk =   0.0104167
        k(   82) = (   0.0623563   0.3720150   0.0000000), wk =   0.0104167
        k(   83) = (   0.0623563   0.3960160   0.0000000), wk =   0.0104167
        k(   84) = (   0.0623563   0.4200169   0.0000000), wk =   0.0104167
        k(   85) = (   0.0623563   0.4440179   0.0000000), wk =   0.0104167
        k(   86) = (   0.0623563   0.4680189   0.0000000), wk =   0.0104167
        k(   87) = (   0.0623563   0.4920198   0.0000000), wk =   0.0104167
        k(   88) = (   0.0623563   0.5160208   0.0000000), wk =   0.0104167
        k(   89) = (   0.0623563   0.5400218   0.0000000), wk =   0.0104167
        k(   90) = (   0.0623563   0.5640227   0.0000000), wk =   0.0104167
        k(   91) = (   0.0831418   0.1440058   0.0000000), wk =   0.0052083
        k(   92) = (   0.0831418   0.1680068   0.0000000), wk =   0.0104167
        k(   93) = (   0.0831418   0.1920077   0.0000000), wk =   0.0104167
        k(   94) = (   0.0831418   0.2160087   0.0000000), wk =   0.0104167
        k(   95) = (   0.0831418   0.2400097   0.0000000), wk =   0.0104167
        k(   96) = (   0.0831418   0.2640106   0.0000000), wk =   0.0104167
        k(   97) = (   0.0831418   0.2880116   0.0000000), wk =   0.0104167
        k(   98) = (   0.0831418   0.3120126   0.0000000), wk =   0.0104167
        k(   99) = (   0.0831418   0.3360135   0.0000000), wk =   0.0104167
        k(  100) = (   0.0831418   0.3600145   0.0000000), wk =   0.0104167
        k(  101) = (   0.0831418   0.3840155   0.0000000), wk =   0.0104167
        k(  102) = (   0.0831418   0.4080164   0.0000000), wk =   0.0104167
        k(  103) = (   0.0831418   0.4320174   0.0000000), wk =   0.0104167
        k(  104) = (   0.0831418   0.4560184   0.0000000), wk =   0.0104167
        k(  105) = (   0.0831418   0.4800193   0.0000000), wk =   0.0104167
        k(  106) = (   0.0831418   0.5040203   0.0000000), wk =   0.0104167
        k(  107) = (   0.0831418   0.5280213   0.0000000), wk =   0.0104167
        k(  108) = (   0.0831418   0.5520222   0.0000000), wk =   0.0104167
        k(  109) = (   0.0831418   0.5760232   0.0000000), wk =   0.0052083
        k(  110) = (   0.1039272   0.1800073   0.0000000), wk =   0.0052083
        k(  111) = (   0.1039272   0.2040082   0.0000000), wk =   0.0104167
        k(  112) = (   0.1039272   0.2280092   0.0000000), wk =   0.0104167
        k(  113) = (   0.1039272   0.2520102   0.0000000), wk =   0.0104167
        k(  114) = (   0.1039272   0.2760111   0.0000000), wk =   0.0104167
        k(  115) = (   0.1039272   0.3000121   0.0000000), wk =   0.0104167
        k(  116) = (   0.1039272   0.3240131   0.0000000), wk =   0.0104167
        k(  117) = (   0.1039272   0.3480140   0.0000000), wk =   0.0104167
        k(  118) = (   0.1039272   0.3720150   0.0000000), wk =   0.0104167
        k(  119) = (   0.1039272   0.3960160   0.0000000), wk =   0.0104167
        k(  120) = (   0.1039272   0.4200169   0.0000000), wk =   0.0104167
        k(  121) = (   0.1039272   0.4440179   0.0000000), wk =   0.0104167
        k(  122) = (   0.1039272   0.4680189   0.0000000), wk =   0.0104167
        k(  123) = (   0.1039272   0.4920198   0.0000000), wk =   0.0104167
        k(  124) = (   0.1039272   0.5160208   0.0000000), wk =   0.0104167
        k(  125) = (   0.1039272   0.5400218   0.0000000), wk =   0.0104167
        k(  126) = (   0.1039272   0.5640227   0.0000000), wk =   0.0104167
        k(  127) = (   0.1247127   0.2160087   0.0000000), wk =   0.0052083
        k(  128) = (   0.1247127   0.2400097   0.0000000), wk =   0.0104167
        k(  129) = (   0.1247127   0.2640106   0.0000000), wk =   0.0104167
        k(  130) = (   0.1247127   0.2880116   0.0000000), wk =   0.0104167
        k(  131) = (   0.1247127   0.3120126   0.0000000), wk =   0.0104167
        k(  132) = (   0.1247127   0.3360135   0.0000000), wk =   0.0104167
        k(  133) = (   0.1247127   0.3600145   0.0000000), wk =   0.0104167
        k(  134) = (   0.1247127   0.3840155   0.0000000), wk =   0.0104167
        k(  135) = (   0.1247127   0.4080164   0.0000000), wk =   0.0104167
        k(  136) = (   0.1247127   0.4320174   0.0000000), wk =   0.0104167
        k(  137) = (   0.1247127   0.4560184   0.0000000), wk =   0.0104167
        k(  138) = (   0.1247127   0.4800193   0.0000000), wk =   0.0104167
        k(  139) = (   0.1247127   0.5040203   0.0000000), wk =   0.0104167
        k(  140) = (   0.1247127   0.5280213   0.0000000), wk =   0.0104167
        k(  141) = (   0.1247127   0.5520222   0.0000000), wk =   0.0104167
        k(  142) = (   0.1247127   0.5760232   0.0000000), wk =   0.0052083
        k(  143) = (   0.1454981   0.2520102   0.0000000), wk =   0.0052083
        k(  144) = (   0.1454981   0.2760111   0.0000000), wk =   0.0104167
        k(  145) = (   0.1454981   0.3000121   0.0000000), wk =   0.0104167
        k(  146) = (   0.1454981   0.3240131   0.0000000), wk =   0.0104167
        k(  147) = (   0.1454981   0.3480140   0.0000000), wk =   0.0104167
        k(  148) = (   0.1454981   0.3720150   0.0000000), wk =   0.0104167
        k(  149) = (   0.1454981   0.3960160   0.0000000), wk =   0.0104167
        k(  150) = (   0.1454981   0.4200169   0.0000000), wk =   0.0104167
        k(  151) = (   0.1454981   0.4440179   0.0000000), wk =   0.0104167
        k(  152) = (   0.1454981   0.4680189   0.0000000), wk =   0.0104167
        k(  153) = (   0.1454981   0.4920198   0.0000000), wk =   0.0104167
        k(  154) = (   0.1454981   0.5160208   0.0000000), wk =   0.0104167
        k(  155) = (   0.1454981   0.5400218   0.0000000), wk =   0.0104167
        k(  156) = (   0.1454981   0.5640227   0.0000000), wk =   0.0104167
        k(  157) = (   0.1662836   0.2880116   0.0000000), wk =   0.0052083
        k(  158) = (   0.1662836   0.3120126   0.0000000), wk =   0.0104167
        k(  159) = (   0.1662836   0.3360135   0.0000000), wk =   0.0104167
        k(  160) = (   0.1662836   0.3600145   0.0000000), wk =   0.0104167
        k(  161) = (   0.1662836   0.3840155   0.0000000), wk =   0.0104167
        k(  162) = (   0.1662836   0.4080164   0.0000000), wk =   0.0104167
        k(  163) = (   0.1662836   0.4320174   0.0000000), wk =   0.0104167
        k(  164) = (   0.1662836   0.4560184   0.0000000), wk =   0.0104167
        k(  165) = (   0.1662836   0.4800193   0.0000000), wk =   0.0104167
        k(  166) = (   0.1662836   0.5040203   0.0000000), wk =   0.0104167
        k(  167) = (   0.1662836   0.5280213   0.0000000), wk =   0.0104167
        k(  168) = (   0.1662836   0.5520222   0.0000000), wk =   0.0104167
        k(  169) = (   0.1662836   0.5760232   0.0000000), wk =   0.0052083
        k(  170) = (   0.1870690   0.3240131   0.0000000), wk =   0.0052083
        k(  171) = (   0.1870690   0.3480140   0.0000000), wk =   0.0104167
        k(  172) = (   0.1870690   0.3720150   0.0000000), wk =   0.0104167
        k(  173) = (   0.1870690   0.3960160   0.0000000), wk =   0.0104167
        k(  174) = (   0.1870690   0.4200169   0.0000000), wk =   0.0104167
        k(  175) = (   0.1870690   0.4440179   0.0000000), wk =   0.0104167
        k(  176) = (   0.1870690   0.4680189   0.0000000), wk =   0.0104167
        k(  177) = (   0.1870690   0.4920198   0.0000000), wk =   0.0104167
        k(  178) = (   0.1870690   0.5160208   0.0000000), wk =   0.0104167
        k(  179) = (   0.1870690   0.5400218   0.0000000), wk =   0.0104167
        k(  180) = (   0.1870690   0.5640227   0.0000000), wk =   0.0104167
        k(  181) = (   0.2078545   0.3600145   0.0000000), wk =   0.0052083
        k(  182) = (   0.2078545   0.3840155   0.0000000), wk =   0.0104167
        k(  183) = (   0.2078545   0.4080164   0.0000000), wk =   0.0104167
        k(  184) = (   0.2078545   0.4320174   0.0000000), wk =   0.0104167
        k(  185) = (   0.2078545   0.4560184   0.0000000), wk =   0.0104167
        k(  186) = (   0.2078545   0.4800193   0.0000000), wk =   0.0104167
        k(  187) = (   0.2078545   0.5040203   0.0000000), wk =   0.0104167
        k(  188) = (   0.2078545   0.5280213   0.0000000), wk =   0.0104167
        k(  189) = (   0.2078545   0.5520222   0.0000000), wk =   0.0104167
        k(  190) = (   0.2078545   0.5760232   0.0000000), wk =   0.0052083
        k(  191) = (   0.2286399   0.3960160   0.0000000), wk =   0.0052083
        k(  192) = (   0.2286399   0.4200169   0.0000000), wk =   0.0104167
        k(  193) = (   0.2286399   0.4440179   0.0000000), wk =   0.0104167
        k(  194) = (   0.2286399   0.4680189   0.0000000), wk =   0.0104167
        k(  195) = (   0.2286399   0.4920198   0.0000000), wk =   0.0104167
        k(  196) = (   0.2286399   0.5160208   0.0000000), wk =   0.0104167
        k(  197) = (   0.2286399   0.5400218   0.0000000), wk =   0.0104167
        k(  198) = (   0.2286399   0.5640227   0.0000000), wk =   0.0104167
        k(  199) = (   0.2494254   0.4320174   0.0000000), wk =   0.0052083
        k(  200) = (   0.2494254   0.4560184   0.0000000), wk =   0.0104167
        k(  201) = (   0.2494254   0.4800193   0.0000000), wk =   0.0104167
        k(  202) = (   0.2494254   0.5040203   0.0000000), wk =   0.0104167
        k(  203) = (   0.2494254   0.5280213   0.0000000), wk =   0.0104167
        k(  204) = (   0.2494254   0.5520222   0.0000000), wk =   0.0104167
        k(  205) = (   0.2494254   0.5760232   0.0000000), wk =   0.0052083
        k(  206) = (   0.2702108   0.4680189   0.0000000), wk =   0.0052083
        k(  207) = (   0.2702108   0.4920198   0.0000000), wk =   0.0104167
        k(  208) = (   0.2702108   0.5160208   0.0000000), wk =   0.0104167
        k(  209) = (   0.2702108   0.5400218   0.0000000), wk =   0.0104167
        k(  210) = (   0.2702108   0.5640227   0.0000000), wk =   0.0104167
        k(  211) = (   0.2909963   0.5040203   0.0000000), wk =   0.0052083
        k(  212) = (   0.2909963   0.5280213   0.0000000), wk =   0.0104167
        k(  213) = (   0.2909963   0.5520222   0.0000000), wk =   0.0104167
        k(  214) = (   0.2909963   0.5760232   0.0000000), wk =   0.0052083
        k(  215) = (   0.3117817   0.5400218   0.0000000), wk =   0.0052083
        k(  216) = (   0.3117817   0.5640227   0.0000000), wk =   0.0104167
        k(  217) = (   0.3325672   0.5760232   0.0000000), wk =   0.0017361

                       cryst. coord.
        k(    1) = (   0.0000000   0.0000000   0.0000000), wk =   0.0008681
        k(    2) = (   0.0000000   0.0208333   0.0000000), wk =   0.0052083
        k(    3) = (   0.0000000   0.0416667   0.0000000), wk =   0.0052083
        k(    4) = (   0.0000000   0.0625000   0.0000000), wk =   0.0052083
        k(    5) = (   0.0000000   0.0833333   0.0000000), wk =   0.0052083
        k(    6) = (   0.0000000   0.1041667   0.0000000), wk =   0.0052083
        k(    7) = (   0.0000000   0.1250000   0.0000000), wk =   0.0052083
        k(    8) = (   0.0000000   0.1458333   0.0000000), wk =   0.0052083
        k(    9) = (   0.0000000   0.1666667   0.0000000), wk =   0.0052083
        k(   10) = (   0.0000000   0.1875000   0.0000000), wk =   0.0052083
        k(   11) = (   0.0000000   0.2083333   0.0000000), wk =   0.0052083
        k(   12) = (   0.0000000   0.2291667   0.0000000), wk =   0.0052083
        k(   13) = (   0.0000000   0.2500000   0.0000000), wk =   0.0052083
        k(   14) = (   0.0000000   0.2708333   0.0000000), wk =   0.0052083
        k(   15) = (   0.0000000   0.2916667   0.0000000), wk =   0.0052083
        k(   16) = (   0.0000000   0.3125000   0.0000000), wk =   0.0052083
        k(   17) = (   0.0000000   0.3333333   0.0000000), wk =   0.0052083
        k(   18) = (   0.0000000   0.3541667   0.0000000), wk =   0.0052083
        k(   19) = (   0.0000000   0.3750000   0.0000000), wk =   0.0052083
        k(   20) = (   0.0000000   0.3958333   0.0000000), wk =   0.0052083
        k(   21) = (   0.0000000   0.4166667   0.0000000), wk =   0.0052083
        k(   22) = (   0.0000000   0.4375000   0.0000000), wk =   0.0052083
        k(   23) = (   0.0000000   0.4583333   0.0000000), wk =   0.0052083
        k(   24) = (   0.0000000   0.4791667   0.0000000), wk =   0.0052083
        k(   25) = (   0.0000000  -0.5000000   0.0000000), wk =   0.0026042
        k(   26) = (   0.0208333   0.0208333   0.0000000), wk =   0.0052083
        k(   27) = (   0.0208333   0.0416667   0.0000000), wk =   0.0104167
        k(   28) = (   0.0208333   0.0625000   0.0000000), wk =   0.0104167
        k(   29) = (   0.0208333   0.0833333   0.0000000), wk =   0.0104167
        k(   30) = (   0.0208333   0.1041667   0.0000000), wk =   0.0104167
        k(   31) = (   0.0208333   0.1250000   0.0000000), wk =   0.0104167
        k(   32) = (   0.0208333   0.1458333   0.0000000), wk =   0.0104167
        k(   33) = (   0.0208333   0.1666667   0.0000000), wk =   0.0104167
        k(   34) = (   0.0208333   0.1875000   0.0000000), wk =   0.0104167
        k(   35) = (   0.0208333   0.2083333   0.0000000), wk =   0.0104167
        k(   36) = (   0.0208333   0.2291667   0.0000000), wk =   0.0104167
        k(   37) = (   0.0208333   0.2500000   0.0000000), wk =   0.0104167
        k(   38) = (   0.0208333   0.2708333   0.0000000), wk =   0.0104167
        k(   39) = (   0.0208333   0.2916667   0.0000000), wk =   0.0104167
        k(   40) = (   0.0208333   0.3125000   0.0000000), wk =   0.0104167
        k(   41) = (   0.0208333   0.3333333   0.0000000), wk =   0.0104167
        k(   42) = (   0.0208333   0.3541667   0.0000000), wk =   0.0104167
        k(   43) = (   0.0208333   0.3750000   0.0000000), wk =   0.0104167
        k(   44) = (   0.0208333   0.3958333   0.0000000), wk =   0.0104167
        k(   45) = (   0.0208333   0.4166667   0.0000000), wk =   0.0104167
        k(   46) = (   0.0208333   0.4375000   0.0000000), wk =   0.0104167
        k(   47) = (   0.0208333   0.4583333   0.0000000), wk =   0.0104167
        k(   48) = (   0.0208333   0.4791667   0.0000000), wk =   0.0104167
        k(   49) = (   0.0416667   0.0416667   0.0000000), wk =   0.0052083
        k(   50) = (   0.0416667   0.0625000   0.0000000), wk =   0.0104167
        k(   51) = (   0.0416667   0.0833333   0.0000000), wk =   0.0104167
        k(   52) = (   0.0416667   0.1041667   0.0000000), wk =   0.0104167
        k(   53) = (   0.0416667   0.1250000   0.0000000), wk =   0.0104167
        k(   54) = (   0.0416667   0.1458333   0.0000000), wk =   0.0104167
        k(   55) = (   0.0416667   0.1666667   0.0000000), wk =   0.0104167
        k(   56) = (   0.0416667   0.1875000   0.0000000), wk =   0.0104167
        k(   57) = (   0.0416667   0.2083333   0.0000000), wk =   0.0104167
        k(   58) = (   0.0416667   0.2291667   0.0000000), wk =   0.0104167
        k(   59) = (   0.0416667   0.2500000   0.0000000), wk =   0.0104167
        k(   60) = (   0.0416667   0.2708333   0.0000000), wk =   0.0104167
        k(   61) = (   0.0416667   0.2916667   0.0000000), wk =   0.0104167
        k(   62) = (   0.0416667   0.3125000   0.0000000), wk =   0.0104167
        k(   63) = (   0.0416667   0.3333333   0.0000000), wk =   0.0104167
        k(   64) = (   0.0416667   0.3541667   0.0000000), wk =   0.0104167
        k(   65) = (   0.0416667   0.3750000   0.0000000), wk =   0.0104167
        k(   66) = (   0.0416667   0.3958333   0.0000000), wk =   0.0104167
        k(   67) = (   0.0416667   0.4166667   0.0000000), wk =   0.0104167
        k(   68) = (   0.0416667   0.4375000   0.0000000), wk =   0.0104167
        k(   69) = (   0.0416667   0.4583333   0.0000000), wk =   0.0104167
        k(   70) = (   0.0416667   0.4791667   0.0000000), wk =   0.0052083
        k(   71) = (   0.0625000   0.0625000   0.0000000), wk =   0.0052083
        k(   72) = (   0.0625000   0.0833333   0.0000000), wk =   0.0104167
        k(   73) = (   0.0625000   0.1041667   0.0000000), wk =   0.0104167
        k(   74) = (   0.0625000   0.1250000   0.0000000), wk =   0.0104167
        k(   75) = (   0.0625000   0.1458333   0.0000000), wk =   0.0104167
        k(   76) = (   0.0625000   0.1666667   0.0000000), wk =   0.0104167
        k(   77) = (   0.0625000   0.1875000   0.0000000), wk =   0.0104167
        k(   78) = (   0.0625000   0.2083333   0.0000000), wk =   0.0104167
        k(   79) = (   0.0625000   0.2291667   0.0000000), wk =   0.0104167
        k(   80) = (   0.0625000   0.2500000   0.0000000), wk =   0.0104167
        k(   81) = (   0.0625000   0.2708333   0.0000000), wk =   0.0104167
        k(   82) = (   0.0625000   0.2916667   0.0000000), wk =   0.0104167
        k(   83) = (   0.0625000   0.3125000   0.0000000), wk =   0.0104167
        k(   84) = (   0.0625000   0.3333333   0.0000000), wk =   0.0104167
        k(   85) = (   0.0625000   0.3541667   0.0000000), wk =   0.0104167
        k(   86) = (   0.0625000   0.3750000   0.0000000), wk =   0.0104167
        k(   87) = (   0.0625000   0.3958333   0.0000000), wk =   0.0104167
        k(   88) = (   0.0625000   0.4166667   0.0000000), wk =   0.0104167
        k(   89) = (   0.0625000   0.4375000   0.0000000), wk =   0.0104167
        k(   90) = (   0.0625000   0.4583333   0.0000000), wk =   0.0104167
        k(   91) = (   0.0833333   0.0833333   0.0000000), wk =   0.0052083
        k(   92) = (   0.0833333   0.1041667   0.0000000), wk =   0.0104167
        k(   93) = (   0.0833333   0.1250000   0.0000000), wk =   0.0104167
        k(   94) = (   0.0833333   0.1458333   0.0000000), wk =   0.0104167
        k(   95) = (   0.0833333   0.1666667   0.0000000), wk =   0.0104167
        k(   96) = (   0.0833333   0.1875000   0.0000000), wk =   0.0104167
        k(   97) = (   0.0833333   0.2083333   0.0000000), wk =   0.0104167
        k(   98) = (   0.0833333   0.2291667   0.0000000), wk =   0.0104167
        k(   99) = (   0.0833333   0.2500000   0.0000000), wk =   0.0104167
        k(  100) = (   0.0833333   0.2708333   0.0000000), wk =   0.0104167
        k(  101) = (   0.0833333   0.2916667   0.0000000), wk =   0.0104167
        k(  102) = (   0.0833333   0.3125000   0.0000000), wk =   0.0104167
        k(  103) = (   0.0833333   0.3333333   0.0000000), wk =   0.0104167
        k(  104) = (   0.0833333   0.3541667   0.0000000), wk =   0.0104167
        k(  105) = (   0.0833333   0.3750000   0.0000000), wk =   0.0104167
        k(  106) = (   0.0833333   0.3958333   0.0000000), wk =   0.0104167
        k(  107) = (   0.0833333   0.4166667   0.0000000), wk =   0.0104167
        k(  108) = (   0.0833333   0.4375000   0.0000000), wk =   0.0104167
        k(  109) = (   0.0833333   0.4583333   0.0000000), wk =   0.0052083
        k(  110) = (   0.1041667   0.1041667   0.0000000), wk =   0.0052083
        k(  111) = (   0.1041667   0.1250000   0.0000000), wk =   0.0104167
        k(  112) = (   0.1041667   0.1458333   0.0000000), wk =   0.0104167
        k(  113) = (   0.1041667   0.1666667   0.0000000), wk =   0.0104167
        k(  114) = (   0.1041667   0.1875000   0.0000000), wk =   0.0104167
        k(  115) = (   0.1041667   0.2083333   0.0000000), wk =   0.0104167
        k(  116) = (   0.1041667   0.2291667   0.0000000), wk =   0.0104167
        k(  117) = (   0.1041667   0.2500000   0.0000000), wk =   0.0104167
        k(  118) = (   0.1041667   0.2708333   0.0000000), wk =   0.0104167
        k(  119) = (   0.1041667   0.2916667   0.0000000), wk =   0.0104167
        k(  120) = (   0.1041667   0.3125000   0.0000000), wk =   0.0104167
        k(  121) = (   0.1041667   0.3333333   0.0000000), wk =   0.0104167
        k(  122) = (   0.1041667   0.3541667   0.0000000), wk =   0.0104167
        k(  123) = (   0.1041667   0.3750000   0.0000000), wk =   0.0104167
        k(  124) = (   0.1041667   0.3958333   0.0000000), wk =   0.0104167
        k(  125) = (   0.1041667   0.4166667   0.0000000), wk =   0.0104167
        k(  126) = (   0.1041667   0.4375000   0.0000000), wk =   0.0104167
        k(  127) = (   0.1250000   0.1250000   0.0000000), wk =   0.0052083
        k(  128) = (   0.1250000   0.1458333   0.0000000), wk =   0.0104167
        k(  129) = (   0.1250000   0.1666667   0.0000000), wk =   0.0104167
        k(  130) = (   0.1250000   0.1875000   0.0000000), wk =   0.0104167
        k(  131) = (   0.1250000   0.2083333   0.0000000), wk =   0.0104167
        k(  132) = (   0.1250000   0.2291667   0.0000000), wk =   0.0104167
        k(  133) = (   0.1250000   0.2500000   0.0000000), wk =   0.0104167
        k(  134) = (   0.1250000   0.2708333   0.0000000), wk =   0.0104167
        k(  135) = (   0.1250000   0.2916667   0.0000000), wk =   0.0104167
        k(  136) = (   0.1250000   0.3125000   0.0000000), wk =   0.0104167
        k(  137) = (   0.1250000   0.3333333   0.0000000), wk =   0.0104167
        k(  138) = (   0.1250000   0.3541667   0.0000000), wk =   0.0104167
        k(  139) = (   0.1250000   0.3750000   0.0000000), wk =   0.0104167
        k(  140) = (   0.1250000   0.3958333   0.0000000), wk =   0.0104167
        k(  141) = (   0.1250000   0.4166667   0.0000000), wk =   0.0104167
        k(  142) = (   0.1250000   0.4375000   0.0000000), wk =   0.0052083
        k(  143) = (   0.1458333   0.1458333   0.0000000), wk =   0.0052083
        k(  144) = (   0.1458333   0.1666667   0.0000000), wk =   0.0104167
        k(  145) = (   0.1458333   0.1875000   0.0000000), wk =   0.0104167
        k(  146) = (   0.1458333   0.2083333   0.0000000), wk =   0.0104167
        k(  147) = (   0.1458333   0.2291667   0.0000000), wk =   0.0104167
        k(  148) = (   0.1458333   0.2500000   0.0000000), wk =   0.0104167
        k(  149) = (   0.1458333   0.2708333   0.0000000), wk =   0.0104167
        k(  150) = (   0.1458333   0.2916667   0.0000000), wk =   0.0104167
        k(  151) = (   0.1458333   0.3125000   0.0000000), wk =   0.0104167
        k(  152) = (   0.1458333   0.3333333   0.0000000), wk =   0.0104167
        k(  153) = (   0.1458333   0.3541667   0.0000000), wk =   0.0104167
        k(  154) = (   0.1458333   0.3750000   0.0000000), wk =   0.0104167
        k(  155) = (   0.1458333   0.3958333   0.0000000), wk =   0.0104167
        k(  156) = (   0.1458333   0.4166667   0.0000000), wk =   0.0104167
        k(  157) = (   0.1666667   0.1666667   0.0000000), wk =   0.0052083
        k(  158) = (   0.1666667   0.1875000   0.0000000), wk =   0.0104167
        k(  159) = (   0.1666667   0.2083333   0.0000000), wk =   0.0104167
        k(  160) = (   0.1666667   0.2291667   0.0000000), wk =   0.0104167
        k(  161) = (   0.1666667   0.2500000   0.0000000), wk =   0.0104167
        k(  162) = (   0.1666667   0.2708333   0.0000000), wk =   0.0104167
        k(  163) = (   0.1666667   0.2916667   0.0000000), wk =   0.0104167
        k(  164) = (   0.1666667   0.3125000   0.0000000), wk =   0.0104167
        k(  165) = (   0.1666667   0.3333333   0.0000000), wk =   0.0104167
        k(  166) = (   0.1666667   0.3541667   0.0000000), wk =   0.0104167
        k(  167) = (   0.1666667   0.3750000   0.0000000), wk =   0.0104167
        k(  168) = (   0.1666667   0.3958333   0.0000000), wk =   0.0104167
        k(  169) = (   0.1666667   0.4166667   0.0000000), wk =   0.0052083
        k(  170) = (   0.1875000   0.1875000   0.0000000), wk =   0.0052083
        k(  171) = (   0.1875000   0.2083333   0.0000000), wk =   0.0104167
        k(  172) = (   0.1875000   0.2291667   0.0000000), wk =   0.0104167
        k(  173) = (   0.1875000   0.2500000   0.0000000), wk =   0.0104167
        k(  174) = (   0.1875000   0.2708333   0.0000000), wk =   0.0104167
        k(  175) = (   0.1875000   0.2916667   0.0000000), wk =   0.0104167
        k(  176) = (   0.1875000   0.3125000   0.0000000), wk =   0.0104167
        k(  177) = (   0.1875000   0.3333333   0.0000000), wk =   0.0104167
        k(  178) = (   0.1875000   0.3541667   0.0000000), wk =   0.0104167
        k(  179) = (   0.1875000   0.3750000   0.0000000), wk =   0.0104167
        k(  180) = (   0.1875000   0.3958333   0.0000000), wk =   0.0104167
        k(  181) = (   0.2083333   0.2083333   0.0000000), wk =   0.0052083
        k(  182) = (   0.2083333   0.2291667   0.0000000), wk =   0.0104167
        k(  183) = (   0.2083333   0.2500000   0.0000000), wk =   0.0104167
        k(  184) = (   0.2083333   0.2708333   0.0000000), wk =   0.0104167
        k(  185) = (   0.2083333   0.2916667   0.0000000), wk =   0.0104167
        k(  186) = (   0.2083333   0.3125000   0.0000000), wk =   0.0104167
        k(  187) = (   0.2083333   0.3333333   0.0000000), wk =   0.0104167
        k(  188) = (   0.2083333   0.3541667   0.0000000), wk =   0.0104167
        k(  189) = (   0.2083333   0.3750000   0.0000000), wk =   0.0104167
        k(  190) = (   0.2083333   0.3958333   0.0000000), wk =   0.0052083
        k(  191) = (   0.2291667   0.2291667   0.0000000), wk =   0.0052083
        k(  192) = (   0.2291667   0.2500000   0.0000000), wk =   0.0104167
        k(  193) = (   0.2291667   0.2708333   0.0000000), wk =   0.0104167
        k(  194) = (   0.2291667   0.2916667   0.0000000), wk =   0.0104167
        k(  195) = (   0.2291667   0.3125000   0.0000000), wk =   0.0104167
        k(  196) = (   0.2291667   0.3333333   0.0000000), wk =   0.0104167
        k(  197) = (   0.2291667   0.3541667   0.0000000), wk =   0.0104167
        k(  198) = (   0.2291667   0.3750000   0.0000000), wk =   0.0104167
        k(  199) = (   0.2500000   0.2500000   0.0000000), wk =   0.0052083
        k(  200) = (   0.2500000   0.2708333   0.0000000), wk =   0.0104167
        k(  201) = (   0.2500000   0.2916667   0.0000000), wk =   0.0104167
        k(  202) = (   0.2500000   0.3125000   0.0000000), wk =   0.0104167
        k(  203) = (   0.2500000   0.3333333   0.0000000), wk =   0.0104167
        k(  204) = (   0.2500000   0.3541667   0.0000000), wk =   0.0104167
        k(  205) = (   0.2500000   0.3750000   0.0000000), wk =   0.0052083
        k(  206) = (   0.2708333   0.2708333   0.0000000), wk =   0.0052083
        k(  207) = (   0.2708333   0.2916667   0.0000000), wk =   0.0104167
        k(  208) = (   0.2708333   0.3125000   0.0000000), wk =   0.0104167
        k(  209) = (   0.2708333   0.3333333   0.0000000), wk =   0.0104167
        k(  210) = (   0.2708333   0.3541667   0.0000000), wk =   0.0104167
        k(  211) = (   0.2916667   0.2916667   0.0000000), wk =   0.0052083
        k(  212) = (   0.2916667   0.3125000   0.0000000), wk =   0.0104167
        k(  213) = (   0.2916667   0.3333333   0.0000000), wk =   0.0104167
        k(  214) = (   0.2916667   0.3541667   0.0000000), wk =   0.0052083
        k(  215) = (   0.3125000   0.3125000   0.0000000), wk =   0.0052083
        k(  216) = (   0.3125000   0.3333333   0.0000000), wk =   0.0104167
        k(  217) = (   0.3333333   0.3333333   0.0000000), wk =   0.0017361

     Dense  grid:    95959 G-vectors     FFT dimensions: (  30,  30, 250)

     Smooth grid:    24345 G-vectors     FFT dimensions: (  24,  24, 160)

     Dynamical RAM for                 wfc:       0.19 MB

     Dynamical RAM for     wfc (w. buffer):      40.40 MB

     Dynamical RAM for           str. fact:       0.73 MB

     Dynamical RAM for           local pot:       0.00 MB

     Dynamical RAM for          nlocal pot:       0.37 MB

     Dynamical RAM for                qrad:       0.46 MB

     Dynamical RAM for          rho,v,vnew:       4.77 MB

     Dynamical RAM for               rhoin:       1.59 MB

     Dynamical RAM for            rho*nmix:      11.71 MB

     Dynamical RAM for           G-vectors:       2.84 MB

     Dynamical RAM for          h,s,v(r/c):       0.01 MB

     Dynamical RAM for          <psi|beta>:       0.00 MB

     Dynamical RAM for                 psi:       0.37 MB

     Dynamical RAM for                hpsi:       0.37 MB

     Dynamical RAM for                spsi:       0.37 MB

     Dynamical RAM for      wfcinit/wfcrot:       0.37 MB

     Dynamical RAM for           addusdens:      32.94 MB

     Dynamical RAM for          addusforce:      34.78 MB

     Dynamical RAM for         addusstress:      36.60 MB

     Estimated static dynamical RAM per process >      56.91 MB

     Estimated max dynamical RAM per process >     105.23 MB

     Estimated total dynamical RAM >     210.46 MB

     Check: negative core charge=   -0.000002

     Initial potential from superposition of free atoms

     starting charge       7.9999, renormalised to       8.0000

     negative rho (up, down):  1.066E-04 0.000E+00
     Starting wfcs are    8 randomized atomic wfcs
     Checking if some PAW data can be deallocated... 

     total cpu time spent up to now is       17.8 secs

     per-process dynamical memory:    72.6 Mb

     Self-consistent Calculation

     iteration #  1     ecut=    40.00 Ry     beta= 0.30
     Davidson diagonalization with overlap

---- Real-time Memory Report at c_bands before calling an iterative solver
            98 MiB given to the printing process from OS
            70 MiB allocation reported by mallinfo(arena+hblkhd)
           997 MiB available memory on the node where the printing process lives
------------------
     ethr =  1.00E-02,  avg # of iterations =  5.8

     negative rho (up, down):  1.062E-04 0.000E+00

     total cpu time spent up to now is      128.2 secs

          k = 0.0000 0.0000 0.0000     band energies (ev):

   -26.1581 -13.2321 -10.4564 -10.4563   0.4085   1.4572   1.4594   1.5766

     occupation numbers 
     1.0000   1.0000   1.0000   1.0000   0.0000   0.0000   0.0000   0.0000

          k = 0.0000 0.0240 0.0000     band energies (ev):

   -26.1482 -13.2200 -10.4954 -10.4773   0.4464   1.4686   1.5020   1.5953

     occupation numbers 
     1.0000   1.0000   1.0000   1.0000   0.0000   0.0000   0.0000   0.0000

          k = 0.0000 0.0480 0.0000     band energies (ev):

   -26.1184 -13.1844 -10.6109 -10.5384   0.4600   1.4911   1.6262   1.6361

     occupation numbers 
     1.0000   1.0000   1.0000   1.0000   0.0000   0.0000   0.0000   0.0000

          k = 0.0000 0.0720 0.0000     band energies (ev):

   -26.0688 -13.1248 -10.7986 -10.6371   0.5434   1.5331   1.7302   1.8343

     occupation numbers 
     1.0000   1.0000   1.0000   1.0000   0.0000   0.0000   0.0000   0.0000

          k = 0.0000 0.0960 0.0000     band energies (ev):

   -25.9994 -13.0430 -11.0526 -10.7686   0.6489   1.5707   1.9018   2.1165

     occupation numbers 
     1.0000   1.0000   1.0000   1.0000   0.0000   0.0000   0.0000   0.0000

          k = 0.0000 0.1200 0.0000     band energies (ev):

   -25.9102 -12.9355 -11.3652 -10.9276   0.7186   1.6154   1.8698   2.4688

     occupation numbers 
     1.0000   1.0000   1.0000   1.0000   0.0000   0.0000   0.0000   0.0000

          k = 0.0000 0.1440 0.0000     band energies (ev):

   -25.8013 -12.8049 -11.7281 -11.1080   1.4573   1.6521   2.8849   3.7153

     occupation numbers 
     1.0000   1.0000   1.0000   1.0000   0.0000   0.0000   0.0000   0.0000

          k = 0.0000 0.1680 0.0000     band energies (ev):

   -25.6731 -12.6503 -12.1333 -11.3039   1.0866   1.6595   3.3581   3.3593

     occupation numbers 
     1.0000   1.0000   1.0000   1.0000   0.0000   0.0000   0.0000   0.0000

          k = 0.0000 0.1920 0.0000     band energies (ev):

   -25.5252 -12.5730 -12.4757 -11.5101   1.2830   1.6915   2.9533   3.8765

     occupation numbers 
     1.0000   1.0000   1.0000   1.0000   0.0000   0.0000   0.0000   0.0000

          k = 0.0000 0.2160 0.0000     band energies (ev):

   -25.3582 -13.0402 -12.2780 -11.7214   1.4121   1.7425   2.5090   4.4393

     occupation numbers 
     1.0000   1.0000   1.0000   1.0000   0.0000   0.0000   0.0000   0.0000

          k = 0.0000 0.2400 0.0000     band energies (ev):

   -25.1718 -13.5285 -12.0590 -11.9335   1.4848   1.9097   2.0456   5.0384

     occupation numbers 
     1.0000   1.0000   1.0000   1.0000   0.0000   0.0000   0.0000   0.0000

          k = 0.0000 0.2640 0.0000     band energies (ev):

   -24.9663 -14.0324 -12.1424 -11.8202   1.4678   1.5429   2.1273   5.6723

     occupation numbers 
     1.0000   1.0000   1.0000   1.0000   0.0000   0.0000   0.0000   0.0000

          k = 0.0000 0.2880 0.0000     band energies (ev):

   -24.7421 -14.5474 -12.3455 -11.5598   1.0349   1.4253   2.4125   6.3258

     occupation numbers 
     1.0000   1.0000   1.0000   1.0000   0.0000   0.0000   0.0000   0.0000

          k = 0.0000 0.3120 0.0000     band energies (ev):

   -24.4993 -15.0690 -12.5396 -11.2816   0.5062   1.3711   2.7414   4.1836

     occupation numbers 
     1.0000   1.0000   1.0000   1.0000   0.0000   0.0000   0.0000   0.0000

          k = 0.0000 0.3360 0.0000     band energies (ev):

   -24.2382 -15.5936 -12.7226 -10.9848  -0.0293   1.3130   3.0960   4.7069

     occupation numbers 
     1.0000   1.0000   1.0000   1.0000   0.0000   0.0000   0.0000   0.0000

          k = 0.0000 0.3600 0.0000     band energies (ev):

   -23.9592 -16.1182 -12.8929 -10.6728  -0.5698   1.2540   3.4791   4.9822

     occupation numbers 
     1.0000   1.0000   1.0000   1.0000   0.0000   0.0000   0.0000   0.0000

          k = 0.0000 0.3840 0.0000     band energies (ev):

   -23.6626 -16.6401 -13.0486 -10.3473  -1.1075   1.1962   3.8988   5.7099

     occupation numbers 
     1.0000   1.0000   1.0000   1.0000   0.0000   0.0000   0.0000   0.0000

          k = 0.0000 0.4080 0.0000     band energies (ev):

   -23.3493 -17.1562 -13.1884 -10.0118  -1.6375   1.1418   4.3420   6.1988

     occupation numbers 
     1.0000   1.0000   1.0000   1.0000   0.0000   0.0000   0.0000   0.0000

          k = 0.0000 0.4320 0.0000     band energies (ev):

   -23.0199 -17.6641 -13.3116  -9.6715  -2.1515   1.0944   4.8042   6.1251

     occupation numbers 
     1.0000   1.0000   1.0000   1.0000   0.0000   0.0000   0.0000   0.0000

          k = 0.0000 0.4560 0.0000     band energies (ev):

   -22.6760 -18.1613 -13.4171  -9.3328  -2.6407   1.0543   5.2911   7.1742

     occupation numbers 
     1.0000   1.0000   1.0000   1.0000   0.0000   0.0000   0.0000   0.0000

          k = 0.0000 0.4800 0.0000     band energies (ev):

   -22.3199 -18.6444 -13.5043  -9.0066  -3.0919   1.0163   5.8088   7.6137

     occupation numbers 
     1.0000   1.0000   1.0000   1.0000   0.0000   0.0000   0.0000   0.0000

          k = 0.0000 0.5040 0.0000     band energies (ev):

   -21.9563 -19.1075 -13.5726  -8.7087  -3.4893   0.9856   6.3329   8.3278

     occupation numbers 
     1.0000   1.0000   1.0000   1.0000   0.0000   0.0000   0.0000   0.0000

          k = 0.0000 0.5280 0.0000     band energies (ev):

   -21.5969 -19.5384 -13.6217  -8.4617  -3.8070   0.9662   6.8745   9.0655

     occupation numbers 
     1.0000   1.0000   1.0000   1.0000   0.0000   0.0000   0.0000   0.0000

          k = 0.0000 0.5520 0.0000     band energies (ev):

   -21.2785 -19.9001 -13.6512  -8.2944  -4.0181   0.9533   7.4241   8.5524

     occupation numbers 
     1.0000   1.0000   1.0000   1.0000   0.0000   0.0000   0.0000   0.0000

          k = 0.0000-0.5760 0.0000     band energies (ev):

   -21.1254 -20.0676 -13.6612  -8.2345  -4.0923   0.9479   7.9005   8.0904

     occupation numbers 
     1.0000   1.0000   1.0000   1.0000   0.0000   0.0000   0.0000   0.0000

          k = 0.0208 0.0360 0.0000     band energies (ev):

   -26.1284 -13.1964 -10.5721 -10.5187   0.4464   1.4848   1.5828   1.6178

     occupation numbers 
     1.0000   1.0000   1.0000   1.0000   0.0000   0.0000   0.0000   0.0000

          k = 0.0208 0.0600 0.0000     band energies (ev):

   -26.0887 -13.1484 -10.7223 -10.6002   0.5391   1.5201   1.6907   1.7455

     occupation numbers 
     1.0000   1.0000   1.0000   1.0000   0.0000   0.0000   0.0000   0.0000

          k = 0.0208 0.0840 0.0000     band energies (ev):

   -26.0291 -13.0783 -10.9412 -10.7171   0.6320   1.5652   1.8897   1.9845

     occupation numbers 
     1.0000   1.0000   1.0000   1.0000   0.0000   0.0000   0.0000   0.0000

          k = 0.0208 0.1080 0.0000     band energies (ev):

   -25.9499 -12.9807 -11.2223 -10.8647   0.6800   1.6152   2.1857   2.2953

     occupation numbers 
     1.0000   1.0000   1.0000   1.0000   0.0000   0.0000   0.0000   0.0000

          k = 0.0208 0.1320 0.0000     band energies (ev):

   -25.8509 -12.8654 -11.5578 -11.0367   0.8248   1.6558   2.0004   2.6715

     occupation numbers 
     1.0000   1.0000   1.0000   1.0000   0.0000   0.0000   0.0000   0.0000

          k = 0.0208 0.1560 0.0000     band energies (ev):

   -25.7323 -12.7231 -11.9394 -11.2271   0.9609   1.6930   2.2152   3.1060

     occupation numbers 
     1.0000   1.0000   1.0000   1.0000   0.0000   0.0000   0.0000   0.0000

          k = 0.0208 0.1800 0.0000     band energies (ev):

   -25.5943 -12.5567 -12.3599 -11.4302   1.1534   1.7035   3.1399   3.5935

     occupation numbers 
     1.0000   1.0000   1.0000   1.0000   0.0000   0.0000   0.0000   0.0000

          k = 0.0208 0.2040 0.0000     band energies (ev):

   -25.4367 -12.8114 -12.3710 -11.6408   1.4297   1.7423   2.7177   4.1255

     occupation numbers 
     1.0000   1.0000   1.0000   1.0000   0.0000   0.0000   0.0000   0.0000

          k = 0.0208 0.2280 0.0000     band energies (ev):

   -25.2600 -13.2876 -12.1627 -11.8540   1.5049   1.8410   2.2692   4.6973

     occupation numbers 
     1.0000   1.0000   1.0000   1.0000   0.0000   0.0000   0.0000   0.0000

          k = 0.0208 0.2520 0.0000     band energies (ev):

   -25.0640 -13.7824 -12.0661 -11.9336   1.5113   1.7852   2.0131   5.2863

     occupation numbers 
     1.0000   1.0000   1.0000   1.0000   0.0000   0.0000   0.0000   0.0000

          k = 0.0208 0.2760 0.0000     band energies (ev):

   -24.8493 -14.2907 -12.2731 -11.6835   1.2817   1.4833   2.2761   5.8788

     occupation numbers 
     1.0000   1.0000   1.0000   1.0000   0.0000   0.0000   0.0000   0.0000

          k = 0.0208 0.3000 0.0000     band energies (ev):

   -24.6157 -14.8079 -12.4727 -11.4144   0.7627   1.4399   2.5943   6.5836

     occupation numbers 
     1.0000   1.0000   1.0000   1.0000   0.0000   0.0000   0.0000   0.0000

          k = 0.0208 0.3240 0.0000     band energies (ev):

   -24.3638 -15.3303 -12.6622 -11.1266   0.2290   1.3841   2.9229   4.6863

     occupation numbers 
     1.0000   1.0000   1.0000   1.0000   0.0000   0.0000   0.0000   0.0000

          k = 0.0208 0.3480 0.0000     band energies (ev):

   -24.0937 -15.8543 -12.8394 -10.8223  -0.3083   1.3263   3.2978   5.1748

     occupation numbers 
     1.0000   1.0000   1.0000   1.0000   0.0000   0.0000   0.0000   0.0000

          k = 0.0208 0.3720 0.0000     band energies (ev):

   -23.8059 -16.3769 -13.0029 -10.5032  -0.8470   1.2678   3.6961   5.2374

     occupation numbers 
     1.0000   1.0000   1.0000   1.0000   0.0000   0.0000   0.0000   0.0000

          k = 0.0208 0.3960 0.0000     band energies (ev):

   -23.5010 -16.8956 -13.1511 -10.1722  -1.3801   1.2113   4.1212   5.7449

     occupation numbers 
     1.0000   1.0000   1.0000   1.0000   0.0000   0.0000   0.0000   0.0000

          k = 0.0208 0.4200 0.0000     band energies (ev):

   -23.1796 -17.4074 -13.2830  -9.8335  -1.9028   1.1592   4.5772   6.0832

     occupation numbers 
     1.0000   1.0000   1.0000   1.0000   0.0000   0.0000   0.0000   0.0000

          k = 0.0208 0.4440 0.0000     band energies (ev):

   -22.8429 -17.9099 -13.3975  -9.4929  -2.4042   1.1124   5.0474   7.1608

     occupation numbers 
     1.0000   1.0000   1.0000   1.0000   0.0000   0.0000   0.0000   0.0000

          k = 0.0208 0.4680 0.0000     band energies (ev):

   -22.4923 -18.4000 -13.4942  -9.1589  -2.8777   1.0781   5.5614   6.9997

     occupation numbers 
     1.0000   1.0000   1.0000   1.0000   0.0000   0.0000   0.0000   0.0000

          k = 0.0208 0.4920 0.0000     band energies (ev):

   -22.1318 -18.8737 -13.5721  -8.8445  -3.3035   1.0447   6.0817   7.2339

     occupation numbers 
     1.0000   1.0000   1.0000   1.0000   0.0000   0.0000   0.0000   0.0000

          k = 0.0208 0.5160 0.0000     band energies (ev):

   -21.7682 -19.3226 -13.6308  -8.5684  -3.6633   1.0198   6.6166   9.3795

     occupation numbers 
     1.0000   1.0000   1.0000   1.0000   0.0000   0.0000   0.0000   0.0000

          k = 0.0208 0.5400 0.0000     band energies (ev):

   -21.4215 -19.7266 -13.6701  -8.3571  -3.9328   1.0020   7.1734   8.8712

     occupation numbers 
     1.0000   1.0000   1.0000   1.0000   0.0000   0.0000   0.0000   0.0000

          k = 0.0208 0.5640 0.0000     band energies (ev):

   -21.1615 -20.0153 -13.6898  -8.2406  -4.0782   0.9934   7.7295   8.3038

     occupation numbers 
     1.0000   1.0000   1.0000   1.0000   0.0000   0.0000   0.0000   0.0000

          k = 0.0416 0.0720 0.0000     band energies (ev):

   -26.0391 -13.0892 -10.9011 -10.7023   0.5700   1.5687   1.8378   1.9327

     occupation numbers 
     1.0000   1.0000   1.0000   1.0000   0.0000   0.0000   0.0000   0.0000

          k = 0.0416 0.0960 0.0000     band energies (ev):

   -25.9697 -13.0067 -11.1431 -10.8395   0.6644   1.6371   1.8613   2.1862

     occupation numbers 
     1.0000   1.0000   1.0000   1.0000   0.0000   0.0000   0.0000   0.0000

          k = 0.0416 0.1200 0.0000     band energies (ev):

   -25.8806 -12.8991 -11.4421 -11.0051   0.8114   1.6930   2.2986   2.5037

     occupation numbers 
     1.0000   1.0000   1.0000   1.0000   0.0000   0.0000   0.0000   0.0000

          k = 0.0416 0.1440 0.0000     band energies (ev):

   -25.7718 -12.7710 -11.7913 -11.1923   0.9035   1.7427   2.0752   2.8813

     occupation numbers 
     1.0000   1.0000   1.0000   1.0000   0.0000   0.0000   0.0000   0.0000

          k = 0.0416 0.1680 0.0000     band energies (ev):

   -25.6435 -12.6159 -12.1835 -11.3947   1.2139   1.7820   3.2889   3.3125

     occupation numbers 
     1.0000   1.0000   1.0000   1.0000   0.0000   0.0000   0.0000   0.0000

          k = 0.0416 0.1920 0.0000     band energies (ev):

   -25.4958 -12.6114 -12.4407 -11.6067   1.3082   1.8046   2.8790   3.7924

     occupation numbers 
     1.0000   1.0000   1.0000   1.0000   0.0000   0.0000   0.0000   0.0000

          k = 0.0416 0.2160 0.0000     band energies (ev):

   -25.3286 -13.0682 -12.2431 -11.8231   1.4938   1.8576   2.4505   4.3176

     occupation numbers 
     1.0000   1.0000   1.0000   1.0000   0.0000   0.0000   0.0000   0.0000

          k = 0.0416 0.2400 0.0000     band energies (ev):

   -25.1424 -13.5475 -12.0394 -12.0246   1.5960   1.9582   1.9827   4.8738

     occupation numbers 
     1.0000   1.0000   1.0000   1.0000   0.0000   0.0000   0.0000   0.0000

          k = 0.0416 0.2640 0.0000     band energies (ev):

   -24.9371 -14.0439 -12.2521 -11.7850   1.4933   1.6157   2.2056   5.4631

     occupation numbers 
     1.0000   1.0000   1.0000   1.0000   0.0000   0.0000   0.0000   0.0000

          k = 0.0416 0.2880 0.0000     band energies (ev):

   -24.7130 -14.5523 -12.4583 -11.5255   0.9864   1.5818   2.4556   6.0714

     occupation numbers 
     1.0000   1.0000   1.0000   1.0000   0.0000   0.0000   0.0000   0.0000

          k = 0.0416 0.3120 0.0000     band energies (ev):

   -24.4703 -15.0685 -12.6549 -11.2473   0.4628   1.5371   2.7821   6.6918

     occupation numbers 
     1.0000   1.0000   1.0000   1.0000   0.0000   0.0000   0.0000   0.0000

          k = 0.0416 0.3360 0.0000     band energies (ev):

   -24.2093 -15.5886 -12.8400 -10.9514  -0.0695   1.4808   3.1383   4.6219

     occupation numbers 
     1.0000   1.0000   1.0000   1.0000   0.0000   0.0000   0.0000   0.0000

          k = 0.0416 0.3600 0.0000     band energies (ev):

   -23.9305 -16.1094 -13.0117 -10.6392  -0.6033   1.4234   3.5177   5.6033

     occupation numbers 
     1.0000   1.0000   1.0000   1.0000   0.0000   0.0000   0.0000   0.0000

          k = 0.0416 0.3840 0.0000     band energies (ev):

   -23.6342 -16.6279 -13.1687 -10.3138  -1.1374   1.3678   3.9362   5.9783

     occupation numbers 
     1.0000   1.0000   1.0000   1.0000   0.0000   0.0000   0.0000   0.0000

          k = 0.0416 0.4080 0.0000     band energies (ev):

   -23.3211 -17.1414 -13.3096  -9.9785  -1.6638   1.3135   4.3699   6.1245

     occupation numbers 
     1.0000   1.0000   1.0000   1.0000   0.0000   0.0000   0.0000   0.0000

          k = 0.0416 0.4320 0.0000     band energies (ev):

   -22.9920 -17.6472 -13.4335  -9.6379  -2.1732   1.2653   4.8595   9.4501

     occupation numbers 
     1.0000   1.0000   1.0000   1.0000   0.0000   0.0000   0.0000   0.0000

          k = 0.0416 0.4560 0.0000     band energies (ev):

   -22.6485 -18.1424 -13.5396  -9.2991  -2.6597   1.2270   5.3201   7.3157

     occupation numbers 
     1.0000   1.0000   1.0000   1.0000   0.0000   0.0000   0.0000   0.0000

          k = 0.0416 0.4800 0.0000     band energies (ev):

   -22.2927 -18.6238 -13.6273  -8.9727  -3.1095   1.1895   5.8335   7.4127

     occupation numbers 
     1.0000   1.0000   1.0000   1.0000   0.0000   0.0000   0.0000   0.0000

          k = 0.0416 0.5040 0.0000     band energies (ev):

   -21.9295 -19.0855 -13.6957  -8.6742  -3.5052   1.1619   6.3638   9.5024

     occupation numbers 
     1.0000   1.0000   1.0000   1.0000   0.0000   0.0000   0.0000   0.0000

          k = 0.0416 0.5280 0.0000     band energies (ev):

   -21.5707 -19.5153 -13.7450  -8.4262  -3.8234   1.1406   6.9167   9.0870

     occupation numbers 
     1.0000   1.0000   1.0000   1.0000   0.0000   0.0000   0.0000   0.0000

          k = 0.0416 0.5520 0.0000     band energies (ev):

   -21.2528 -19.8759 -13.7747  -8.2580  -4.0336   1.1272   7.4718   8.6133

     occupation numbers 
     1.0000   1.0000   1.0000   1.0000   0.0000   0.0000   0.0000   0.0000

          k = 0.0416 0.5760 0.0000     band energies (ev):

   -21.1002 -20.0429 -13.7846  -8.1979  -4.1087   1.1227   7.9516   8.1222

     occupation numbers 
     1.0000   1.0000   1.0000   1.0000   0.0000   0.0000   0.0000   0.0000

          k = 0.0624 0.1080 0.0000     band energies (ev):

   -25.8905 -12.9113 -11.4000 -10.9978   0.7450   1.7159   1.8850   2.4364

     occupation numbers 
     1.0000   1.0000   1.0000   1.0000   0.0000   0.0000   0.0000   0.0000

          k = 0.0624 0.1320 0.0000     band energies (ev):

   -25.7916 -12.7944 -11.7077 -11.1836   0.8918   1.8105   2.1409   2.7365

     occupation numbers 
     1.0000   1.0000   1.0000   1.0000   0.0000   0.0000   0.0000   0.0000

          k = 0.0624 0.1560 0.0000     band energies (ev):

   -25.6732 -12.6534 -12.0614 -11.3888   1.0386   1.8830   2.2091   3.0899

     occupation numbers 
     1.0000   1.0000   1.0000   1.0000   0.0000   0.0000   0.0000   0.0000

          k = 0.0624 0.1800 0.0000     band energies (ev):

   -25.5352 -12.4863 -12.4554 -11.6059   1.2396   1.9278   2.9922   3.4952

     occupation numbers 
     1.0000   1.0000   1.0000   1.0000   0.0000   0.0000   0.0000   0.0000

          k = 0.0624 0.2040 0.0000     band energies (ev):

   -25.3778 -12.8832 -12.3014 -11.8289   1.4561   1.9723   2.5757   3.9473

     occupation numbers 
     1.0000   1.0000   1.0000   1.0000   0.0000   0.0000   0.0000   0.0000

          k = 0.0624 0.2280 0.0000     band energies (ev):

   -25.2012 -13.3387 -12.0932 -12.0528   1.7756   2.0607   2.1346   4.4452

     occupation numbers 
     1.0000   1.0000   1.0000   1.0000   0.0000   0.0000   0.0000   0.0000

          k = 0.0624 0.2520 0.0000     band energies (ev):

   -25.0055 -13.8159 -12.2740 -11.8646   1.6656   1.7799   2.1696   4.9744

     occupation numbers 
     1.0000   1.0000   1.0000   1.0000   0.0000   0.0000   0.0000   0.0000

          k = 0.0624 0.2760 0.0000     band energies (ev):

   -24.7909 -14.3092 -12.4886 -11.6148   1.1736   1.7781   2.3685   5.5333

     occupation numbers 
     1.0000   1.0000   1.0000   1.0000   0.0000   0.0000   0.0000   0.0000

          k = 0.0624 0.3000 0.0000     band energies (ev):

   -24.5576 -14.8140 -12.6941 -11.3463   0.6651   1.7550   2.6698   6.1034

     occupation numbers 
     1.0000   1.0000   1.0000   1.0000   0.0000   0.0000   0.0000   0.0000

          k = 0.0624 0.3240 0.0000     band energies (ev):

   -24.3059 -15.3259 -12.8885 -11.0589   0.1444   1.7122   3.0152   6.6946

     occupation numbers 
     1.0000   1.0000   1.0000   1.0000   0.0000   0.0000   0.0000   0.0000

          k = 0.0624 0.3480 0.0000     band energies (ev):

   -24.0362 -15.8412 -13.0696 -10.7550  -0.3831   1.6617   3.3824   7.2929

     occupation numbers 
     1.0000   1.0000   1.0000   1.0000   0.0000   0.0000   0.0000   0.0000

          k = 0.0624 0.3720 0.0000     band energies (ev):

   -23.7488 -16.3566 -13.2362 -10.4364  -0.9128   1.6058   3.7802   7.8594

     occupation numbers 
     1.0000   1.0000   1.0000   1.0000   0.0000   0.0000   0.0000   0.0000

          k = 0.0624 0.3960 0.0000     band energies (ev):

   -23.4443 -16.8691 -13.3869 -10.1056  -1.4374   1.5516   4.2107   8.4277

     occupation numbers 
     1.0000   1.0000   1.0000   1.0000   0.0000   0.0000   0.0000   0.0000

          k = 0.0624 0.4200 0.0000     band energies (ev):

   -23.1235 -17.3758 -13.5207  -9.7667  -1.9515   1.5004   4.6620   8.8476

     occupation numbers 
     1.0000   1.0000   1.0000   1.0000   0.0000   0.0000   0.0000   0.0000

          k = 0.0624 0.4440 0.0000     band energies (ev):

   -22.7874 -17.8741 -13.6368  -9.4261  -2.4472   1.4538   5.1369   9.3522

     occupation numbers 
     1.0000   1.0000   1.0000   1.0000   0.0000   0.0000   0.0000   0.0000

          k = 0.0624 0.4680 0.0000     band energies (ev):

   -22.4379 -18.3609 -13.7345  -9.0914  -2.9139   1.4124   5.6238   7.4537

     occupation numbers 
     1.0000   1.0000   1.0000   1.0000   0.0000   0.0000   0.0000   0.0000

          k = 0.0624 0.4920 0.0000     band energies (ev):

   -22.0781 -18.8314 -13.8131  -8.7760  -3.3367   1.3794   6.1462   9.4335

     occupation numbers 
     1.0000   1.0000   1.0000   1.0000   0.0000   0.0000   0.0000   0.0000

          k = 0.0624 0.5160 0.0000     band energies (ev):

   -21.7153 -19.2776 -13.8723  -8.4984  -3.6956   1.3630   6.6821   9.2838

     occupation numbers 
     1.0000   1.0000   1.0000   1.0000   0.0000   0.0000   0.0000   0.0000

          k = 0.0624 0.5400 0.0000     band energies (ev):

   -21.3698 -19.6795 -13.9121  -8.2855  -3.9644   1.3458   7.2350   8.8466

     occupation numbers 
     1.0000   1.0000   1.0000   1.0000   0.0000   0.0000   0.0000   0.0000

          k = 0.0624 0.5640 0.0000     band energies (ev):

   -21.1108 -19.9667 -13.9319  -8.1676  -4.1102   1.3368   7.7715   8.3716

     occupation numbers 
     1.0000   1.0000   1.0000   1.0000   0.0000   0.0000   0.0000   0.0000

          k = 0.0831 0.1440 0.0000     band energies (ev):

   -25.6829 -12.6630 -12.0164 -11.3908   1.7630   1.9244   2.9994   3.3981

     occupation numbers 
     1.0000   1.0000   1.0000   1.0000   0.0000   0.0000   0.0000   0.0000

          k = 0.0831 0.1680 0.0000     band energies (ev):

   -25.5547 -12.5126 -12.3661 -11.6164   1.2137   2.0327   2.5662   3.0477

     occupation numbers 
     1.0000   1.0000   1.0000   1.0000   0.0000   0.0000   0.0000   0.0000

          k = 0.0831 0.1920 0.0000     band energies (ev):

   -25.4074 -12.7533 -12.3355 -11.8515   1.4286   2.1169   2.6592   3.6552

     occupation numbers 
     1.0000   1.0000   1.0000   1.0000   0.0000   0.0000   0.0000   0.0000

          k = 0.0831 0.2160 0.0000     band energies (ev):

   -25.2405 -13.1733 -12.1391 -12.0888   1.6340   2.1814   2.2441   4.0599

     occupation numbers 
     1.0000   1.0000   1.0000   1.0000   0.0000   0.0000   0.0000   0.0000

          k = 0.0831 0.2400 0.0000     band energies (ev):

   -25.0544 -13.6208 -12.3231 -11.9211   1.7932   1.8574   2.2470   4.5132

     occupation numbers 
     1.0000   1.0000   1.0000   1.0000   0.0000   0.0000   0.0000   0.0000

          k = 0.0831 0.2640 0.0000     band energies (ev):

   -24.8494 -14.0903 -12.5507 -11.6823   1.3204   1.9899   2.3670   5.0134

     occupation numbers 
     1.0000   1.0000   1.0000   1.0000   0.0000   0.0000   0.0000   0.0000

          k = 0.0831 0.2880 0.0000     band energies (ev):

   -24.6257 -14.5762 -12.7688 -11.4234   0.8299   2.0235   2.6037   5.5375

     occupation numbers 
     1.0000   1.0000   1.0000   1.0000   0.0000   0.0000   0.0000   0.0000

          k = 0.0831 0.3120 0.0000     band energies (ev):

   -24.3833 -15.0738 -12.9751 -11.1456   0.3235   2.0044   2.9151   6.0865

     occupation numbers 
     1.0000   1.0000   1.0000   1.0000   0.0000   0.0000   0.0000   0.0000

          k = 0.0831 0.3360 0.0000     band energies (ev):

   -24.1229 -15.5785 -13.1679 -10.8502  -0.1918   1.9643   3.2707   6.6499

     occupation numbers 
     1.0000   1.0000   1.0000   1.0000   0.0000   0.0000   0.0000   0.0000

          k = 0.0831 0.3600 0.0000     band energies (ev):

   -23.8446 -16.0865 -13.3456 -10.5390  -0.7120   1.9149   3.6542   7.1885

     occupation numbers 
     1.0000   1.0000   1.0000   1.0000   0.0000   0.0000   0.0000   0.0000

          k = 0.0831 0.3840 0.0000     band energies (ev):

   -23.5489 -16.5945 -13.5074 -10.2141  -1.2303   1.8623   4.0616   7.7713

     occupation numbers 
     1.0000   1.0000   1.0000   1.0000   0.0000   0.0000   0.0000   0.0000

          k = 0.0831 0.4080 0.0000     band energies (ev):

   -23.2366 -17.0991 -13.6521  -9.8790  -1.7437   1.8116   4.4979   8.3007

     occupation numbers 
     1.0000   1.0000   1.0000   1.0000   0.0000   0.0000   0.0000   0.0000

          k = 0.0831 0.4320 0.0000     band energies (ev):

   -22.9085 -17.5977 -13.7788  -9.5382  -2.2438   1.7631   4.9644   8.7761

     occupation numbers 
     1.0000   1.0000   1.0000   1.0000   0.0000   0.0000   0.0000   0.0000

          k = 0.0831 0.4560 0.0000     band energies (ev):

   -22.5659 -18.0870 -13.8872  -9.1989  -2.7216   1.7199   5.4465   9.1894

     occupation numbers 
     1.0000   1.0000   1.0000   1.0000   0.0000   0.0000   0.0000   0.0000

          k = 0.0831 0.4800 0.0000     band energies (ev):

   -22.2115 -18.5633 -13.9764  -8.8712  -3.1658   1.6829   5.9451   9.2832

     occupation numbers 
     1.0000   1.0000   1.0000   1.0000   0.0000   0.0000   0.0000   0.0000

          k = 0.0831 0.5040 0.0000     band energies (ev):

   -21.8497 -19.0207 -14.0462  -8.5706  -3.5583   1.6534   6.4763   9.2895

     occupation numbers 
     1.0000   1.0000   1.0000   1.0000   0.0000   0.0000   0.0000   0.0000

          k = 0.0831 0.5280 0.0000     band energies (ev):

   -21.4924 -19.4470 -14.0963  -8.3202  -3.8747   1.6319   7.0103   9.0294

     occupation numbers 
     1.0000   1.0000   1.0000   1.0000   0.0000   0.0000   0.0000   0.0000

          k = 0.0831 0.5520 0.0000     band energies (ev):

   -21.1761 -19.8044 -14.1261  -8.1496  -4.0849   1.6311   7.5484   8.6090

     occupation numbers 
     1.0000   1.0000   1.0000   1.0000   0.0000   0.0000   0.0000   0.0000

          k = 0.0831 0.5760 0.0000     band energies (ev):

   -21.0245 -19.9704 -14.1364  -8.0884  -4.1600   1.6144   7.9804   8.2075

     occupation numbers 
     1.0000   1.0000   1.0000   1.0000   0.0000   0.0000   0.0000   0.0000

          k = 0.1039 0.1800 0.0000     band energies (ev):

   -25.4172 -12.7051 -12.3469 -11.8640   1.4030   2.1916   2.6865   3.5353

     occupation numbers 
     1.0000   1.0000   1.0000   1.0000   0.0000   0.0000   0.0000   0.0000

          k = 0.1039 0.2040 0.0000     band energies (ev):

   -25.2600 -13.0777 -12.1617 -12.1198   1.6064   2.2918   2.3444   3.8127

     occupation numbers 
     1.0000   1.0000   1.0000   1.0000   0.0000   0.0000   0.0000   0.0000

          k = 0.1039 0.2280 0.0000     band energies (ev):

   -25.0838 -13.4821 -12.3751 -11.9554   1.8378   1.8719   2.4307   4.1515

     occupation numbers 
     1.0000   1.0000   1.0000   1.0000   0.0000   0.0000   0.0000   0.0000

          k = 0.1039 0.2520 0.0000     band energies (ev):

   -24.8885 -13.9147 -12.6235 -11.7273   1.4216   2.0716   2.5124   4.5488

     occupation numbers 
     1.0000   1.0000   1.0000   1.0000   0.0000   0.0000   0.0000   0.0000

          k = 0.1039 0.2760 0.0000     band energies (ev):

   -24.6743 -14.3705 -12.8608 -11.4788   0.9525   2.2786   2.6673   5.0064

     occupation numbers 
     1.0000   1.0000   1.0000   1.0000   0.0000   0.0000   0.0000   0.0000

          k = 0.1039 0.3000 0.0000     band energies (ev):

   -24.4416 -14.8442 -13.0846 -11.2111   0.4642   2.3236   2.8725   5.5043

     occupation numbers 
     1.0000   1.0000   1.0000   1.0000   0.0000   0.0000   0.0000   0.0000

          k = 0.1039 0.3240 0.0000     band energies (ev):

   -24.1905 -15.3307 -13.2932 -10.9244  -0.0346   2.3163   3.1870   6.0301

     occupation numbers 
     1.0000   1.0000   1.0000   1.0000   0.0000   0.0000   0.0000   0.0000

          k = 0.1039 0.3480 0.0000     band energies (ev):

   -23.9214 -15.8252 -13.4855 -10.6214  -0.5405   2.2840   3.5459   6.5675

     occupation numbers 
     1.0000   1.0000   1.0000   1.0000   0.0000   0.0000   0.0000   0.0000

[...]
     1.0000   1.0000   1.0000   1.0000   0.0000   0.0000   0.0000   0.0000

          k = 0.1871 0.3960 0.0000 (  3037 PWs)   bands (ev):

   -18.5445 -12.0963 -10.2453  -6.1155   1.6895   5.4801   6.1741   6.3906

     occupation numbers 
     1.0000   1.0000   1.0000   1.0000   0.0000   0.0000   0.0000   0.0000

          k = 0.1871 0.4200 0.0000 (  3029 PWs)   bands (ev):

   -18.2162 -12.5471 -10.4376  -5.7608   1.2147   5.9470   6.6341   6.8747

     occupation numbers 
     1.0000   1.0000   1.0000   1.0000   0.0000   0.0000   0.0000   0.0000

          k = 0.1871 0.4440 0.0000 (  3032 PWs)   bands (ev):

   -17.8726 -13.0070 -10.5965  -5.3997   0.7472   6.4389   7.1121   7.3866

     occupation numbers 
     1.0000   1.0000   1.0000   1.0000   0.0000   0.0000   0.0000   0.0000

          k = 0.1871 0.4680 0.0000 (  3016 PWs)   bands (ev):

   -17.5153 -13.4683 -10.7251  -5.0392   0.2958   6.9545   7.6007   7.9249

     occupation numbers 
     1.0000   1.0000   1.0000   1.0000   0.0000   0.0000   0.0000   0.0000

          k = 0.1871 0.4920 0.0000 (  3027 PWs)   bands (ev):

   -17.1477 -13.9237 -10.8258  -4.6909  -0.1273   7.4903   8.0844   8.2267

     occupation numbers 
     1.0000   1.0000   1.0000   1.0000   0.0000   0.0000   0.0000   0.0000

          k = 0.1871 0.5160 0.0000 (  3026 PWs)   bands (ev):

   -16.7766 -14.3628 -10.9002  -4.3739  -0.5013   8.0160   8.2331   8.5300

     occupation numbers 
     1.0000   1.0000   1.0000   1.0000   0.0000   0.0000   0.0000   0.0000

          k = 0.1871 0.5400 0.0000 (  3016 PWs)   bands (ev):

   -16.4213 -14.7645 -10.9493  -4.1197  -0.7940   8.1474   8.6572   8.8762

     occupation numbers 
     1.0000   1.0000   1.0000   1.0000   0.0000   0.0000   0.0000   0.0000

          k = 0.1871 0.5640 0.0000 (  3009 PWs)   bands (ev):

   -16.1510 -15.0584 -10.9737  -3.9730  -0.9602   8.1437   9.0588   9.2305

     occupation numbers 
     1.0000   1.0000   1.0000   1.0000   0.0000   0.0000   0.0000   0.0000

          k = 0.2079 0.3600 0.0000 (  3037 PWs)   bands (ev):

   -18.8661 -11.5856 -10.0873  -6.4690   2.1930   5.0252   5.7207   5.9207

     occupation numbers 
     1.0000   1.0000   1.0000   1.0000   0.0000   0.0000   0.0000   0.0000

          k = 0.2079 0.3840 0.0000 (  3041 PWs)   bands (ev):

   -18.5640 -11.9487 -10.3867  -6.1338   1.7414   5.4527   6.1431   6.3622

     occupation numbers 
     1.0000   1.0000   1.0000   1.0000   0.0000   0.0000   0.0000   0.0000

          k = 0.2079 0.4080 0.0000 (  3039 PWs)   bands (ev):

   -18.2452 -12.3420 -10.6391  -5.7855   1.2871   5.9061   6.5866   6.8321

     occupation numbers 
     1.0000   1.0000   1.0000   1.0000   0.0000   0.0000   0.0000   0.0000

          k = 0.2079 0.4320 0.0000 (  3035 PWs)   bands (ev):

   -17.9105 -12.7595 -10.8459  -5.4278   0.8348   6.3847   7.0468   7.3301

     occupation numbers 
     1.0000   1.0000   1.0000   1.0000   0.0000   0.0000   0.0000   0.0000

          k = 0.2079 0.4560 0.0000 (  3022 PWs)   bands (ev):

   -17.5615 -13.1923 -11.0118  -5.0658   0.3905   6.8876   7.5146   7.8562

     occupation numbers 
     1.0000   1.0000   1.0000   1.0000   0.0000   0.0000   0.0000   0.0000

          k = 0.2079 0.4800 0.0000 (  3015 PWs)   bands (ev):

   -17.2005 -13.6306 -11.1416  -4.7079  -0.0363   7.4130   7.9713   8.4089

     occupation numbers 
     1.0000   1.0000   1.0000   1.0000   0.0000   0.0000   0.0000   0.0000

          k = 0.2079 0.5040 0.0000 (  3014 PWs)   bands (ev):

   -16.8322 -14.0644 -11.2392  -4.3683  -0.4308   7.9570   8.3798   8.7775

     occupation numbers 
     1.0000   1.0000   1.0000   1.0000   0.0000   0.0000   0.0000   0.0000

          k = 0.2079 0.5280 0.0000 (  3012 PWs)   bands (ev):

   -16.4675 -14.4783 -11.3073  -4.0713  -0.7675   8.4993   8.6843   8.7760

     occupation numbers 
     1.0000   1.0000   1.0000   1.0000   0.0000   0.0000   0.0000   0.0000

          k = 0.2079 0.5520 0.0000 (  3017 PWs)   bands (ev):

   -16.1413 -14.8350 -11.3476  -3.8574  -1.0057   8.7039   8.8526   9.1277

     occupation numbers 
     1.0000   1.0000   1.0000   1.0000   0.0000   0.0000   0.0000   0.0000

          k = 0.2079 0.5760 0.0000 (  3016 PWs)   bands (ev):

   -15.9812 -15.0055 -11.3610  -3.7771  -1.0940   8.7066   8.9033   9.5971

     occupation numbers 
     1.0000   1.0000   1.0000   1.0000   0.0000   0.0000   0.0000   0.0000

          k = 0.2286 0.3960 0.0000 (  3043 PWs)   bands (ev):

   -18.2549 -12.2607 -10.7193  -5.7938   1.3119   5.8924   6.5707   6.8179

     occupation numbers 
     1.0000   1.0000   1.0000   1.0000   0.0000   0.0000   0.0000   0.0000

          k = 0.2286 0.4200 0.0000 (  3035 PWs)   bands (ev):

   -17.9296 -12.6045 -11.0024  -5.4420   0.8804   6.3575   7.0138   7.3019

     occupation numbers 
     1.0000   1.0000   1.0000   1.0000   0.0000   0.0000   0.0000   0.0000

          k = 0.2286 0.4440 0.0000 (  3029 PWs)   bands (ev):

   -17.5894 -12.9792 -11.2323  -5.0822   0.4509   6.8470   7.4615   7.8138

     occupation numbers 
     1.0000   1.0000   1.0000   1.0000   0.0000   0.0000   0.0000   0.0000

          k = 0.2286 0.4680 0.0000 (  3021 PWs)   bands (ev):

   -17.2362 -13.3770 -11.4118  -4.7205   0.0299   7.3596   7.8926   8.3538

     occupation numbers 
     1.0000   1.0000   1.0000   1.0000   0.0000   0.0000   0.0000   0.0000

          k = 0.2286 0.4920 0.0000 (  3008 PWs)   bands (ev):

   -16.8732 -13.7864 -11.5471  -4.3665  -0.3722   7.8926   8.2651   8.9203

     occupation numbers 
     1.0000   1.0000   1.0000   1.0000   0.0000   0.0000   0.0000   0.0000

          k = 0.2286 0.5160 0.0000 (  3013 PWs)   bands (ev):

   -16.5073 -14.1935 -11.6439  -4.0381  -0.7375   8.4411   8.5270   9.3281

     occupation numbers 
     1.0000   1.0000   1.0000   1.0000   0.0000   0.0000   0.0000   0.0000

          k = 0.2286 0.5400 0.0000 (  3013 PWs)   bands (ev):

   -16.1567 -14.5742 -11.7063  -3.7668  -1.0336   8.6668   8.9866   9.3241

     occupation numbers 
     1.0000   1.0000   1.0000   1.0000   0.0000   0.0000   0.0000   0.0000

          k = 0.2286 0.5640 0.0000 (  3009 PWs)   bands (ev):

   -15.8883 -14.8584 -11.7370  -3.6048  -1.2081   8.7211   9.2540   9.5926

     occupation numbers 
     1.0000   1.0000   1.0000   1.0000   0.0000   0.0000   0.0000   0.0000

          k = 0.2494 0.4320 0.0000 (  3029 PWs)   bands (ev):

   -17.5987 -12.8940 -11.3201  -5.0878   0.4716   6.8335   7.4436   7.7998

     occupation numbers 
     1.0000   1.0000   1.0000   1.0000   0.0000   0.0000   0.0000   0.0000

          k = 0.2494 0.4560 0.0000 (  3025 PWs)   bands (ev):

   -17.2542 -13.2166 -11.5809  -4.7271   0.0649   7.3326   7.8520   8.3256

     occupation numbers 
     1.0000   1.0000   1.0000   1.0000   0.0000   0.0000   0.0000   0.0000

          k = 0.2494 0.4800 0.0000 (  3014 PWs)   bands (ev):

   -16.8984 -13.5697 -11.7824  -4.3664  -0.3336   7.8527   8.1929   8.8791

     occupation numbers 
     1.0000   1.0000   1.0000   1.0000   0.0000   0.0000   0.0000   0.0000

          k = 0.2494 0.5040 0.0000 (  3004 PWs)   bands (ev):

   -16.5358 -13.9423 -11.9291  -4.0176  -0.7120   8.3900   8.4155   9.4589

     occupation numbers 
     1.0000   1.0000   1.0000   1.0000   0.0000   0.0000   0.0000   0.0000

          k = 0.2494 0.5280 0.0000 (  3011 PWs)   bands (ev):

   -16.1768 -14.3154 -12.0280  -3.7024  -1.0484   8.5218   8.9368   9.8523

     occupation numbers 
     1.0000   1.0000   1.0000   1.0000   0.0000   0.0000   0.0000   0.0000

          k = 0.2494 0.5520 0.0000 (  3009 PWs)   bands (ev):

   -15.8538 -14.6496 -12.0851  -3.4640  -1.2997   8.5599   9.4703   9.8422

     occupation numbers 
     1.0000   1.0000   1.0000   1.0000   0.0000   0.0000   0.0000   0.0000

          k = 0.2494 0.5760 0.0000 (  3008 PWs)   bands (ev):

   -15.6923 -14.8153 -12.1037  -3.3704  -1.3974   8.5684   9.7625   9.9300

     occupation numbers 
     1.0000   1.0000   1.0000   1.0000   0.0000   0.0000   0.0000   0.0000

          k = 0.2702 0.4680 0.0000 (  3005 PWs)   bands (ev):

   -16.9068 -13.4825 -11.8758  -4.3666  -0.3200   7.8393   8.1682   8.8651

     occupation numbers 
     1.0000   1.0000   1.0000   1.0000   0.0000   0.0000   0.0000   0.0000

          k = 0.2702 0.4920 0.0000 (  3005 PWs)   bands (ev):

   -16.5505 -13.7819 -12.1064  -4.0079  -0.6975   8.3577   8.3637   9.4318

     occupation numbers 
     1.0000   1.0000   1.0000   1.0000   0.0000   0.0000   0.0000   0.0000

          k = 0.2702 0.5160 0.0000 (  3000 PWs)   bands (ev):

   -16.1917 -14.1081 -12.2709  -3.6640  -1.0549   8.4302   8.8993  10.0233

     occupation numbers 
     1.0000   1.0000   1.0000   1.0000   0.0000   0.0000   0.0000   0.0000

          k = 0.2702 0.5400 0.0000 (  3001 PWs)   bands (ev):

   -15.8463 -14.4381 -12.3750  -3.3632  -1.3646   8.4426   9.4329  10.2982

     occupation numbers 
     1.0000   1.0000   1.0000   1.0000   0.0000   0.0000   0.0000   0.0000

          k = 0.2702 0.5640 0.0000 (  3002 PWs)   bands (ev):

   -15.5756 -14.7033 -12.4251  -3.1684  -1.5638   8.4391   9.9267  10.2331

     occupation numbers 
     1.0000   1.0000   1.0000   1.0000   0.0000   0.0000   0.0000   0.0000

          k = 0.2910 0.5040 0.0000 (  3011 PWs)   bands (ev):

   -16.1970 -14.0240 -12.3668  -3.6512  -1.0569   8.3988   8.8864  10.0114

     occupation numbers 
     1.0000   1.0000   1.0000   1.0000   0.0000   0.0000   0.0000   0.0000

          k = 0.2910 0.5280 0.0000 (  3002 PWs)   bands (ev):

   -15.8464 -14.2967 -12.5522  -3.3104  -1.3986   8.3813   9.4093  10.6016

     occupation numbers 
     1.0000   1.0000   1.0000   1.0000   0.0000   0.0000   0.0000   0.0000

          k = 0.2910 0.5520 0.0000 (  2994 PWs)   bands (ev):

   -15.5244 -14.5750 -12.6609  -3.0229  -1.6864   8.3549   9.9060  10.5468

     occupation numbers 
     1.0000   1.0000   1.0000   1.0000   0.0000   0.0000   0.0000   0.0000

          k = 0.2910 0.5760 0.0000 (  3002 PWs)   bands (ev):

   -15.3517 -14.7340 -12.6965  -2.8930  -1.8164   8.3438  10.2620  10.3866

     occupation numbers 
     1.0000   1.0000   1.0000   1.0000   0.0000   0.0000   0.0000   0.0000

          k = 0.3118 0.5400 0.0000 (  3001 PWs)   bands (ev):

   -15.5111 -14.5167 -12.7514  -2.9679  -1.7335   8.3258   9.8964  10.6648

     occupation numbers 
     1.0000   1.0000   1.0000   1.0000   0.0000   0.0000   0.0000   0.0000

          k = 0.3118 0.5640 0.0000 (  3000 PWs)   bands (ev):

   -15.2238 -14.7438 -12.8539  -2.6834  -2.0139   8.2924  10.3035  10.5864

     occupation numbers 
     1.0000   1.0000   1.0000   1.0000   0.0000   0.0000   0.0000   0.0000

          k = 0.3326 0.5760 0.0000 (  3009 PWs)   bands (ev):

   -14.9596 -14.9596 -12.9228  -2.3466  -2.3466   8.2701  10.5307  10.5308

     occupation numbers 
     1.0000   1.0000   1.0000   0.5000   0.5000   0.0000   0.0000   0.0000

     the Fermi energy is    -2.3464 ev

!    total energy              =     -36.88644737 Ry
     total all-electron energy =      -152.414643 Ry
     estimated scf accuracy    <          9.6E-11 Ry
     smearing contrib. (-TS)   =      -0.00000006 Ry
     internal energy E=F+TS    =     -36.88644731 Ry

     The total energy is F=E-TS. E is the sum of the following terms:
     one-electron contribution =    -223.81386029 Ry
     hartree contribution      =     113.34120984 Ry
     xc contribution           =      -9.27397215 Ry
     ewald contribution        =      95.19398334 Ry
     one-center paw contrib.   =     -12.33380804 Ry
      -> PAW hartree energy AE =       9.50232258 Ry
      -> PAW hartree energy PS =      -9.49368611 Ry
      -> PAW xc energy AE      =     -10.67682041 Ry
      -> PAW xc energy PS      =       4.50127991 Ry
      -> total E_H with PAW    =     113.34984631 Ry
      -> total E_XC with PAW   =     -15.44951264 Ry

     convergence has been achieved in   9 iterations

     negative rho (up, down):  1.263E-04 0.000E+00

     Forces acting on atoms (cartesian axes, Ry/au):

     atom    1 type  1   force =    -0.00000000   -0.00000000    0.00000000
     atom    2 type  1   force =     0.00000000    0.00000000    0.00000000
     The non-local contrib.  to forces
     atom    1 type  1   force =    -0.00000000    0.00000000    0.00000000
     atom    2 type  1   force =     0.00000000   -0.00000000    0.00000000
     The ionic contribution  to forces
     atom    1 type  1   force =    -0.00000001   -0.00000000    0.00000000
     atom    2 type  1   force =     0.00000001    0.00000000    0.00000000
     The local contribution  to forces
     atom    1 type  1   force =    -0.00000000    0.00000000    0.00000000
     atom    2 type  1   force =     0.00000001   -0.00000001   -0.00000000
     The core correction contribution to forces
     atom    1 type  1   force =     0.00000000    0.00000000   -0.00000000
     atom    2 type  1   force =    -0.00000000    0.00000000    0.00000000
     The Hubbard contrib.    to forces
     atom    1 type  1   force =     0.00000000    0.00000000    0.00000000
     atom    2 type  1   force =     0.00000000    0.00000000    0.00000000
     The SCF correction term to forces
     atom    1 type  1   force =    -0.00000000   -0.00000000    0.00000000
     atom    2 type  1   force =     0.00000000    0.00000000   -0.00000000

     Total force =     0.000000     Total SCF correction =     0.000000


     Computing stress (Cartesian axis) and pressure


     negative rho (up, down):  1.263E-04 0.000E+00
          total   stress  (Ry/bohr**3)                   (kbar)     P=       -0.51
  -0.00000037   0.00000000   0.00000000           -0.05        0.00        0.00
   0.00000000  -0.00000037  -0.00000000            0.00       -0.05       -0.00
   0.00000000   0.00000000  -0.00000962            0.00        0.00       -1.42

     kinetic stress (kbar)   1938.61     -0.00      0.00
                               -0.00   1938.61      0.00
                               -0.00     -0.00   2200.55

     local   stress (kbar) -49014.98      0.00     -0.00
                                0.00 -49014.98     -0.00
                               -0.00     -0.00  48876.11

     nonloc. stress (kbar)    489.27     -0.00      0.00
                               -0.00    489.27      0.00
                                0.00      0.00    446.43

     hartree stress (kbar)  23291.08      0.00     -0.00
                                0.00  23291.08     -0.00
                               -0.00     -0.00 -23118.85

     exc-cor stress (kbar)    -34.84     -0.00     -0.00
                               -0.00    -34.84     -0.00
                               -0.00     -0.00    -56.86

     corecor stress (kbar)   -467.26      0.00     -0.00
                                0.00   -467.26      0.00
                               -0.00      0.00   -459.23

     ewald   stress (kbar)  23798.06     -0.00      0.00
                               -0.00  23798.06      0.00
                                0.00      0.00 -27889.56

     hubbard stress (kbar)      0.00      0.00      0.00
                                0.00      0.00      0.00
                                0.00      0.00      0.00

     DFT-D   stress (kbar)      0.00      0.00      0.00
                                0.00      0.00      0.00
                                0.00      0.00      0.00

     XDM     stress (kbar)      0.00      0.00      0.00
                                0.00      0.00      0.00
                                0.00      0.00      0.00

     dft-nl  stress (kbar)      0.00      0.00      0.00
                                0.00      0.00      0.00
                                0.00      0.00      0.00

     TS-vdW  stress (kbar)      0.00      0.00      0.00
                                0.00      0.00      0.00
                                0.00      0.00      0.00

     MDB     stress (kbar)      0.00      0.00      0.00
                                0.00      0.00      0.00
                                0.00      0.00      0.00

     3D-RISM stress (kbar)      0.00      0.00      0.00
                                0.00      0.00      0.00
                                0.00      0.00      0.00


     Writing all to output data dir ./out/graphene.save/

     init_run     :     28.47s CPU     17.70s WALL (       1 calls)
     electrons    :   1229.29s CPU    768.92s WALL (       1 calls)
     forces       :     15.21s CPU      9.61s WALL (       1 calls)
     stress       :     17.51s CPU     10.53s WALL (       1 calls)

     Called by init_run:
     wfcinit      :     26.63s CPU     16.42s WALL (       1 calls)
     wfcinit:atom :      0.19s CPU      0.11s WALL (     217 calls)
     wfcinit:wfcr :     25.73s CPU     15.89s WALL (     217 calls)
     potinit      :      0.82s CPU      0.50s WALL (       1 calls)
     hinit0       :      0.85s CPU      0.63s WALL (       1 calls)

     Called by electrons:
     c_bands      :   1104.09s CPU    692.11s WALL (       9 calls)
     sum_band     :    122.09s CPU     74.71s WALL (       9 calls)
     v_of_rho     :      1.11s CPU      0.60s WALL (      10 calls)
     v_h          :      0.07s CPU      0.04s WALL (      10 calls)
     v_xc         :      1.29s CPU      0.70s WALL (      12 calls)
     newd         :      0.85s CPU      0.47s WALL (      10 calls)
     PAW_pot      :      0.54s CPU      0.28s WALL (      10 calls)
     mix_rho      :      0.13s CPU      0.07s WALL (       9 calls)

     Called by c_bands:
     init_us_2    :      2.98s CPU      1.85s WALL (    4557 calls)
     init_us_2:cp :      2.95s CPU      1.83s WALL (    4557 calls)
     cegterg      :   1086.18s CPU    680.58s WALL (    1953 calls)

     Called by sum_band:
     sum_band:wei :      0.03s CPU      0.02s WALL (       9 calls)
     sum_band:loo :    120.64s CPU     73.81s WALL (       9 calls)
     sum_band:buf :      0.10s CPU      0.07s WALL (    1953 calls)
     sum_band:ini :      1.02s CPU      0.71s WALL (    1953 calls)
     sum_band:cal :     24.55s CPU     14.34s WALL (    1953 calls)
     sum_band:bec :     14.99s CPU      9.83s WALL (    1953 calls)
     addusdens    :      0.83s CPU      0.51s WALL (       9 calls)
                                        0.00s GPU  (       9 calls)
     addusd:skk   :      0.01s CPU      0.01s WALL (       9 calls)
                                        0.00s GPU  (       9 calls)

     Called by *egterg:
     cdiaghg      :      3.20s CPU      1.91s WALL (   10139 calls)
     cegterg:over :     81.17s CPU     46.81s WALL (    8186 calls)
     cegterg:upda :     90.13s CPU     60.37s WALL (    8186 calls)
     cegterg:last :      8.18s CPU      5.25s WALL (    5008 calls)
     h_psi        :    597.53s CPU    370.00s WALL (   10356 calls)
     s_psi        :     54.78s CPU     37.46s WALL (   10356 calls)
     g_psi        :     62.70s CPU     41.62s WALL (    8186 calls)

     Called by h_psi:
     h_psi:calbec :    124.15s CPU     71.92s WALL (   10356 calls)
     vloc_psi     :    409.69s CPU    255.48s WALL (   10356 calls)
     add_vuspsi   :     13.71s CPU      9.00s WALL (   10356 calls)

     General routines
     calbec       :    163.99s CPU     95.78s WALL (   13394 calls)
     fft          :      1.11s CPU      0.64s WALL (     153 calls)
     ffts         :      0.31s CPU      0.24s WALL (      19 calls)
     fftw         :    403.53s CPU    247.77s WALL (  115508 calls)
     interpolate  :      0.30s CPU      0.23s WALL (      10 calls)

     Parallel routines

     PAW routines
     PAW_pot      :      0.54s CPU      0.28s WALL (      10 calls)
     PAW_symme    :      0.00s CPU      0.00s WALL (      19 calls)

     PWSCF        :  21m31.43s CPU  13m27.58s WALL


   This run was terminated on:  22:17:32  14Nov2023            

=------------------------------------------------------------------------------=
   JOB DONE.
=------------------------------------------------------------------------------=
